 vasp.5.4.1 05Feb16 (build Mar 31 2016 13:39:20) complex                        
  
 executed on           IFC91_ompi date 2018.04.12  14:18:41
 running on   36 total cores
 distrk:  each k-point on   36 cores,    1 groups
 distr:  one band on NCORES_PER_BAND=   9 cores,    4 groups


--------------------------------------------------------------------------------------------------------


 INCAR:
 POTCAR:    PAW_PBE Mg 13Apr2007                  
 POTCAR:    PAW_PBE O 08Apr2002                   
 POTCAR:    PAW_PBE Mg 13Apr2007                  
   VRHFIN =Mg: s2p0                                                             
   LEXCH  = PE                                                                  
   EATOM  =    23.0369 eV,    1.6932 Ry                                         
                                                                                
   TITEL  = PAW_PBE Mg 13Apr2007                                                
   LULTRA =        F    use ultrasoft PP ?                                      
   IUNSCR =        1    unscreen: 0-lin 1-nonlin 2-no                           
   RPACOR =    1.500    partial core radius                                     
   POMASS =   24.305; ZVAL   =    2.000    mass and valenz                      
   RCORE  =    2.000    outmost cutoff radius                                   
   RWIGS  =    2.880; RWIGS  =    1.524    wigner-seitz radius (au A)           
   ENMAX  =  126.143; ENMIN  =   94.607 eV                                      
   RCLOC  =    1.506    cutoff for local pot                                    
   LCOR   =        T    correct aug charges                                     
   LPAW   =        T    paw PP                                                  
   EAUG   =  454.734                                                            
   DEXC   =    0.000                                                            
   RMAX   =    2.045    core radius for proj-oper                               
   RAUG   =    1.300    factor for augmentation sphere                          
   RDEP   =    2.025    radius for radial grids                                 
   RDEPT  =    1.942    core radius for aug-charge                              
                                                                                
   Atomic configuration                                                         
    6 entries                                                                   
     n  l   j            E        occ.                                          
     1  0  0.50     -1259.6230   2.0000                                         
     2  0  0.50       -79.8442   2.0000                                         
     2  1  1.50       -46.6121   6.0000                                         
     3  0  0.50        -4.7055   2.0000                                         
     3  1  0.50        -1.3660   0.0000                                         
     3  2  1.50        -1.3606   0.0000                                         
   Description                                                                  
     l       E           TYP  RCUT    TYP  RCUT                                 
     0     -4.7054661     23  2.000                                             
     0     27.2116520     23  2.000                                             
     1      1.3605826     23  2.000                                             
     1     27.2116520     23  2.000                                             
     2     -1.3605826     23  2.000                                             
  local pseudopotential read in
  partial core-charges read in
  partial kinetic energy density read in
  atomic valenz-charges read in
  non local Contribution for L=           0  read in
    real space projection operators read in
  non local Contribution for L=           0  read in
    real space projection operators read in
  non local Contribution for L=           1  read in
    real space projection operators read in
  non local Contribution for L=           1  read in
    real space projection operators read in
  non local Contribution for L=           2  read in
    real space projection operators read in
    PAW grid and wavefunctions read in
 
   number of l-projection  operators is LMAX  =           5
   number of lm-projection operators is LMMAX =          13
 
 POTCAR:    PAW_PBE O 08Apr2002                   
   VRHFIN =O: s2p4                                                              
   LEXCH  = PE                                                                  
   EATOM  =   432.3788 eV,   31.7789 Ry                                         
                                                                                
   TITEL  = PAW_PBE O 08Apr2002                                                 
   LULTRA =        F    use ultrasoft PP ?                                      
   IUNSCR =        1    unscreen: 0-lin 1-nonlin 2-no                           
   RPACOR =    1.200    partial core radius                                     
   POMASS =   16.000; ZVAL   =    6.000    mass and valenz                      
   RCORE  =    1.520    outmost cutoff radius                                   
   RWIGS  =    1.550; RWIGS  =    0.820    wigner-seitz radius (au A)           
   ENMAX  =  400.000; ENMIN  =  300.000 eV                                      
   ICORE  =        2    local potential                                         
   LCOR   =        T    correct aug charges                                     
   LPAW   =        T    paw PP                                                  
   EAUG   =  605.392                                                            
   DEXC   =    0.000                                                            
   RMAX   =    1.553    core radius for proj-oper                               
   RAUG   =    1.300    factor for augmentation sphere                          
   RDEP   =    1.550    radius for radial grids                                 
   RDEPT  =    1.329    core radius for aug-charge                              
                                                                                
   Atomic configuration                                                         
    4 entries                                                                   
     n  l   j            E        occ.                                          
     1  0  0.50      -514.6923   2.0000                                         
     2  0  0.50       -23.9615   2.0000                                         
     2  1  0.50        -9.0305   4.0000                                         
     3  2  1.50        -9.5241   0.0000                                         
   Description                                                                  
     l       E           TYP  RCUT    TYP  RCUT                                 
     0    -23.9615318     23  1.200                                             
     0     -9.5240782     23  1.200                                             
     1     -9.0304911     23  1.520                                             
     1      8.1634956     23  1.520                                             
     2     -9.5240782      7  1.500                                             
  local pseudopotential read in
  partial core-charges read in
  partial kinetic energy density read in
  kinetic energy density of atom read in
  atomic valenz-charges read in
  non local Contribution for L=           0  read in
    real space projection operators read in
  non local Contribution for L=           0  read in
    real space projection operators read in
  non local Contribution for L=           1  read in
    real space projection operators read in
  non local Contribution for L=           1  read in
    real space projection operators read in
    PAW grid and wavefunctions read in
 
   number of l-projection  operators is LMAX  =           4
   number of lm-projection operators is LMMAX =           8
 
 Optimization of the real space projectors (new method)

 maximal supplied QI-value         = 18.90
 optimisation between [QCUT,QGAM] = [ 10.20, 20.41] = [ 29.16,116.64] Ry 
 Optimized for a Real-space Cutoff    1.30 Angstroem

   l    n(q)    QCUT    max X(q) W(low)/X(q) W(high)/X(q)  e(spline) 
   0      8    10.205    28.265    0.22E-03    0.17E-03    0.53E-07
   0      8    10.205    10.429    0.17E-03    0.15E-03    0.43E-07
   1      7    10.205    13.073    0.71E-04    0.41E-03    0.76E-07
   1      7    10.205     9.625    0.71E-04    0.33E-03    0.63E-07
   2      7    10.205     4.652    0.24E-03    0.41E-03    0.55E-07
 Optimization of the real space projectors (new method)

 maximal supplied QI-value         = 24.76
 optimisation between [QCUT,QGAM] = [ 10.15, 20.30] = [ 28.85,115.39] Ry 
 Optimized for a Real-space Cutoff    1.38 Angstroem

   l    n(q)    QCUT    max X(q) W(low)/X(q) W(high)/X(q)  e(spline) 
   0      8    10.150    20.381    0.22E-03    0.32E-03    0.29E-06
   0      8    10.150    15.268    0.23E-03    0.35E-03    0.30E-06
   1      8    10.150     5.964    0.46E-03    0.53E-03    0.21E-06
   1      8    10.150     5.382    0.38E-03    0.45E-03    0.19E-06
  PAW_PBE Mg 13Apr2007                  :
 energy of atom  1       EATOM=  -23.0369
 kinetic energy error for atom=    0.0001 (will be added to EATOM!!)
  PAW_PBE O 08Apr2002                   :
 energy of atom  2       EATOM= -432.3788
 kinetic energy error for atom=    0.1156 (will be added to EATOM!!)
 
 
 POSCAR: Mg9 O8                                  
  positions in direct lattice
  velocities in cartesian coordinates
 exchange correlation table for  LEXCH =        8
   RHO(1)=    0.500       N(1)  =     2000
   RHO(2)=  100.500       N(2)  =     4000
 


--------------------------------------------------------------------------------------------------------


 ion  position               nearest neighbor table
   1  0.122  0.127  0.123-  14 1.85  10 1.85  11 1.85  12 1.85   4 2.12   3 2.12   6 2.12   2 2.12
                             9 3.52   7 3.52   5 3.52   8 3.52   5 3.52   8 3.52   9 3.52   8 3.52
   2  0.977  0.984  0.979-  15 1.98  16 1.98  13 1.98   1 2.12  14 2.30  11 2.30  12 2.31   4 2.54
                             3 2.54   6 2.55   5 3.01   8 3.01   7 3.02   7 3.02   8 3.02   5 3.02
   3  0.977  0.983  0.555-  17 1.98  15 1.98  13 1.98   1 2.12  14 2.30  10 2.30  12 2.30   2 2.54
                             4 2.55   6 2.55   9 3.01   5 3.01   7 3.02   7 3.02   5 3.02   9 3.02
   4  0.979  0.559  0.979-  13 1.98  16 1.98  17 1.98   1 2.12  10 2.29  11 2.30  14 2.31   2 2.54
                             6 2.54   3 2.55   8 3.01   9 3.01   5 3.01   5 3.02   9 3.02   8 3.02
   5  0.996  0.502  0.499-  17 2.11  16 2.12  11 2.12  10 2.12  15 2.12  12 2.12   9 2.99   8 3.00
                             7 3.00   7 3.01   8 3.01   9 3.01   2 3.01   3 3.01   4 3.01   3 3.02
   6  0.554  0.981  0.980-  16 1.98  17 1.98  15 1.98   1 2.12  12 2.29  11 2.30  10 2.31   4 2.54
                             3 2.55   2 2.55   8 3.01   9 3.01   7 3.02   7 3.02   9 3.02   8 3.03
   7  0.497  0.001  0.498-  13 2.11  16 2.12  17 2.12  14 2.12  11 2.12  10 2.12   9 3.00   5 3.00
                             8 3.00   8 3.01   5 3.01   9 3.01   6 3.02   3 3.02   2 3.02   2 3.02
   8  0.497  0.502  0.997-  15 2.12  17 2.12  12 2.12  13 2.12  14 2.12  10 2.12   5 3.00   9 3.00
                             7 3.00   6 3.01   4 3.01   7 3.01   9 3.01   5 3.01   2 3.01   2 3.02
   9  0.498  0.502  0.498-  15 2.11  16 2.12  13 2.12  12 2.12  14 2.12  11 2.12   5 2.99   7 3.00
                             8 3.00   3 3.01   8 3.01   6 3.01   7 3.01   5 3.01   4 3.01   4 3.02
  10  0.246  0.253  0.249-   1 1.85   5 2.12   8 2.12   7 2.12   4 2.29   3 2.30   6 2.31
  11  0.247  0.252  0.747-   1 1.85   5 2.12   7 2.12   9 2.12   2 2.30   4 2.30   6 2.30
  12  0.248  0.750  0.248-   1 1.85   8 2.12   9 2.12   5 2.12   6 2.29   3 2.30   2 2.31
  13  0.248  0.752  0.747-   4 1.98   2 1.98   3 1.98   7 2.11   8 2.12   9 2.12
  14  0.745  0.252  0.249-   1 1.85   7 2.12   8 2.12   9 2.12   2 2.30   3 2.30   4 2.31
  15  0.745  0.253  0.748-   2 1.98   3 1.98   6 1.98   9 2.11   8 2.12   5 2.12
  16  0.747  0.751  0.250-   6 1.98   2 1.98   4 1.98   5 2.12   9 2.12   7 2.12
  17  0.747  0.751  0.747-   6 1.98   3 1.98   4 1.98   5 2.11   8 2.12   7 2.12
 
  LATTYP: Found a face centered cubic cell.
 ALAT       =     8.4937860000
  
  Lattice vectors:
  
 A1 = (   0.0000000000,   4.2468930000,   4.2468930000)
 A2 = (   4.2468930000,   0.0000000000,   4.2468930000)
 A3 = (   4.2468930000,   4.2468930000,   0.0000000000)


Analysis of symmetry for initial positions (statically):
=====================================================================
 Subroutine PRICEL returns:
 Original cell was already a primitive cell.
 

 Routine SETGRP: Setting up the symmetry group for a 
 face centered cubic supercell.


 Subroutine GETGRP returns: Found  1 space group operations
 (whereof  1 operations were pure point group operations)
 out of a pool of 48 trial point group operations.


The static configuration has the point symmetry C_1 .


Analysis of symmetry for dynamics (positions and initial velocities):
=====================================================================
 Subroutine PRICEL returns:
 Original cell was already a primitive cell.
 

 Routine SETGRP: Setting up the symmetry group for a 
 face centered cubic supercell.


 Subroutine GETGRP returns: Found  1 space group operations
 (whereof  1 operations were pure point group operations)
 out of a pool of 48 trial point group operations.


The dynamic configuration has the point symmetry C_1 .


Analysis of structural, dynamic, and magnetic symmetry:
=====================================================================
 Subroutine PRICEL returns:
 Original cell was already a primitive cell.
 

 Routine SETGRP: Setting up the symmetry group for a 
 face centered cubic supercell.


 Subroutine GETGRP returns: Found  1 space group operations
 (whereof  1 operations were pure point group operations)
 out of a pool of 48 trial point group operations.


The magnetic configuration has the point symmetry C_1 .


 Subroutine INISYM returns: Found  1 space group operations
 (whereof  1 operations are pure point group operations),
 and found     1 'primitive' translations

 
 
 KPOINTS: k-point mesh                            

Automatic generation of k-mesh.
Space group operators:
 irot       det(A)        alpha          n_x          n_y          n_z        tau_x        tau_y        tau_z
    1     1.000000     0.000000     1.000000     0.000000     0.000000     0.000000     0.000000     0.000000
 
 Subroutine IBZKPT returns following result:
 ===========================================
 
 Found     16 irreducible k-points:
 
 Following reciprocal coordinates:
            Coordinates               Weight
  0.250000  0.250000  0.250000     24.000000
  0.250000  0.000000  0.000000     24.000000
  0.000000  0.000000 -0.250000     24.000000
  0.000000  0.250000  0.000000     24.000000
 -0.250000  0.250000  0.250000     24.000000
  0.250000 -0.250000  0.250000     24.000000
  0.250000  0.250000 -0.250000     24.000000
  0.250000  0.000000  0.500000     24.000000
 -0.250000  0.500000  0.500000     24.000000
  0.250000  0.500000  0.000000     24.000000
  0.000000  0.500000 -0.250000     24.000000
  0.500000  0.000000 -0.250000     24.000000
  0.500000  0.500000  0.250000     24.000000
  0.500000 -0.250000  0.500000     24.000000
  0.000000  0.250000  0.500000     24.000000
  0.500000  0.250000  0.000000     24.000000
 
 Following cartesian coordinates:
            Coordinates               Weight
  0.029433  0.029433  0.029433     24.000000
 -0.029433  0.029433  0.029433     24.000000
 -0.029433 -0.029433  0.029433     24.000000
  0.029433 -0.029433  0.029433     24.000000
  0.088300 -0.029433 -0.029433     24.000000
 -0.029433  0.088300 -0.029433     24.000000
 -0.029433 -0.029433  0.088300     24.000000
  0.029433  0.088300 -0.029433     24.000000
  0.147166 -0.029433 -0.029433     24.000000
  0.029433 -0.029433  0.088300     24.000000
  0.029433 -0.088300  0.088300     24.000000
 -0.088300  0.029433  0.088300     24.000000
  0.029433  0.029433  0.088300     24.000000
 -0.029433  0.147166 -0.029433     24.000000
  0.088300  0.029433 -0.029433     24.000000
 -0.029433  0.029433  0.088300     24.000000
 


--------------------------------------------------------------------------------------------------------




 Dimension of arrays:
   k-points           NKPTS =     16   k-points in BZ     NKDIM =     16   number of bands    NBANDS=     52
   number of dos      NEDOS =    301   number of ions     NIONS =     17
   non local maximal  LDIM  =      5   non local SUM 2l+1 LMDIM =     13
   total plane-waves  NPLWV =  27000
   max r-space proj   IRMAX =   1992   max aug-charges    IRDMAX=   7686
   dimension x,y,z NGX =    30 NGY =   30 NGZ =   30
   dimension x,y,z NGXF=    60 NGYF=   60 NGZF=   60
   support grid    NGXF=    60 NGYF=   60 NGZF=   60
   ions per type =               9   8
 NGX,Y,Z   is equivalent  to a cutoff of   8.30,  8.30,  8.30 a.u.
 NGXF,Y,Z  is equivalent  to a cutoff of  16.61, 16.61, 16.61 a.u.


 I would recommend the setting:
   dimension x,y,z NGX =    29 NGY =   29 NGZ =   29
 SYSTEM =  unknown system                          
 POSCAR =  Mg9 O8                                  

 Startparameter for this run:
   NWRITE =      2    write-flag & timer
   PREC   = n         normal or accurate (medium, high low for compatibility)
   ISTART =      0    job   : 0-new  1-cont  2-samecut
   ICHARG =      2    charge: 1-file 2-atom 10-const
   ISPIN  =      2    spin polarized calculation?
   LNONCOLLINEAR =      F non collinear calculations
   LSORBIT =      F    spin-orbit coupling
   INIWAV =      1    electr: 0-lowe 1-rand  2-diag
   LASPH  =      T    aspherical Exc in radial PAW
   METAGGA=      F    non-selfconsistent MetaGGA calc.

 Electronic Relaxation 1
   ENCUT  =  400.0 eV  29.40 Ry    5.42 a.u.   9.79  9.79  9.79*2*pi/ulx,y,z
   ENINI  =  400.0     initial cutoff
   ENAUG  =  605.4 eV  augmentation charge cutoff
   NELM   =    100;   NELMIN=  4; NELMDL=  0     # of ELM steps 
   EDIFF  = 0.1E-05   stopping-criterion for ELM
   LREAL  =      T    real-space projection
   NLSPLINE    = F    spline interpolate recip. space projectors
   LCOMPAT=      F    compatible to vasp.4.4
   GGA_COMPAT  = T    GGA compatible to vasp.4.4-vasp.4.6
   LMAXPAW     = -100 max onsite density
   LMAXMIX     =    2 max onsite mixed and CHGCAR
   VOSKOWN=      0    Vosko Wilk Nusair interpolation
   ROPT   =   -0.00050  -0.00050
 Ionic relaxation
   EDIFFG = -.5E-01   stopping-criterion for IOM
   NSW    =     20    number of steps for IOM
   NBLOCK =      1;   KBLOCK =     20    inner block; outer block 
   IBRION =      2    ionic relax: 0-MD 1-quasi-New 2-CG
   NFREE  =      1    steps in history (QN), initial steepest desc. (CG)
   ISIF   =      2    stress and relaxation
   IWAVPR =     11    prediction:  0-non 1-charg 2-wave 3-comb
   ISYM   =      2    0-nonsym 1-usesym 2-fastsym
   LCORR  =      T    Harris-Foulkes like correction to forces

   POTIM  = 0.5000    time-step for ionic-motion
   TEIN   =    0.0    initial temperature
   TEBEG  =    0.0;   TEEND  =   0.0 temperature during run
   SMASS  =  -3.00    Nose mass-parameter (am)
   estimated Nose-frequenzy (Omega)   =  0.10E-29 period in steps =****** mass=  -0.824E-27a.u.
   SCALEE = 1.0000    scale energy and forces
   NPACO  =    256;   APACO  = 16.0  distance and # of slots for P.C.
   PSTRESS=    0.0 pullay stress

  Mass of Ions in am
   POMASS =  24.30 16.00
  Ionic Valenz
   ZVAL   =   2.00  6.00
  Atomic Wigner-Seitz radii
   RWIGS  =  -1.00 -1.00
  virtual crystal weights 
   VCA    =   1.00  1.00
   NELECT =      64.0000    total number of electrons
   NUPDOWN=      -1.0000    fix difference up-down

 DOS related values:
   EMIN   =  10.00;   EMAX   =-10.00  energy-range for DOS
   EFERMI =   0.00
   ISMEAR =     0;   SIGMA  =   0.05  broadening in eV -4-tet -1-fermi 0-gaus

 Electronic relaxation 2 (details)
   IALGO  =     38    algorithm
   LDIAG  =      T    sub-space diagonalisation (order eigenvalues)
   LSUBROT=      F    optimize rotation matrix (better conditioning)
   TURBO    =      0    0=normal 1=particle mesh
   IRESTART =      0    0=no restart 2=restart with 2 vectors
   NREBOOT  =      0    no. of reboots
   NMIN     =      0    reboot dimension
   EREF     =   0.00    reference energy to select bands
   IMIX   =      4    mixing-type and parameters
     AMIX     =   0.40;   BMIX     =  1.00
     AMIX_MAG =   1.60;   BMIX_MAG =  1.00
     AMIN     =   0.10
     WC   =   100.;   INIMIX=   1;  MIXPRE=   1;  MAXMIX= -45

 Intra band minimization:
   WEIMIN = 0.0010     energy-eigenvalue tresh-hold
   EBREAK =  0.48E-08  absolut break condition
   DEPER  =   0.30     relativ break condition  

   TIME   =   0.40     timestep for ELM

  volume/ion in A,a.u.               =       9.01        60.81
  Fermi-wavevector in a.u.,A,eV,Ry     =   1.223827  2.312698 20.378173  1.497753
  Thomas-Fermi vector in A             =   2.358924
 
 Write flags
   LWAVE  =      F    write WAVECAR
   LCHARG =      F    write CHGCAR
   LVTOT  =      F    write LOCPOT, total local potential
   LVHAR  =      F    write LOCPOT, Hartree potential only
   LELF   =      F    write electronic localiz. function (ELF)
   LORBIT =     12    0 simple, 1 ext, 2 COOP (PROOUT)


 Dipole corrections
   LMONO  =      F    monopole corrections only (constant potential shift)
   LDIPOL =      F    correct potential (dipole corrections)
   IDIPOL =      0    1-x, 2-y, 3-z, 4-all directions 
   EPSILON=  1.0000000 bulk dielectric constant

 Exchange correlation treatment:
   GGA     =    --    GGA type
   LEXCH   =     8    internal setting for exchange type
   VOSKOWN=      0    Vosko Wilk Nusair interpolation
   LHFCALC =     F    Hartree Fock is set to
   LHFONE  =     F    Hartree Fock one center treatment
   AEXX    =    0.0000 exact exchange contribution

 Linear response parameters
   LEPSILON=     F    determine dielectric tensor
   LRPA    =     F    only Hartree local field effects (RPA)
   LNABLA  =     F    use nabla operator in PAW spheres
   LVEL    =     F    velocity operator in full k-point grid
   LINTERFAST=   F  fast interpolation
   KINTER  =     0    interpolate to denser k-point grid
   CSHIFT  =0.1000    complex shift for real part using Kramers Kronig
   OMEGAMAX=  -1.0    maximum frequency
   DEG_THRESHOLD= 0.2000000E-02 threshold for treating states as degnerate
   RTIME   =    0.100 relaxation time in fs

 Orbital magnetization related:
   ORBITALMAG=     F  switch on orbital magnetization
   LCHIMAG   =     F  perturbation theory with respect to B field
   DQ        =  0.001000  dq finite difference perturbation B field



--------------------------------------------------------------------------------------------------------


 conjugate gradient relaxation of ions
 charge density and potential will be updated during run
 spin polarized calculation
 Variant of blocked Davidson
 Davidson routine will perform the subspace rotation
 perform sub-space diagonalisation
    after iterative eigenvector-optimisation
 modified Broyden-mixing scheme, WC =      100.0
 initial mixing is a Kerker type mixing with AMIX =  0.4000 and BMIX =      1.0000
 Hartree-type preconditioning will be used
 using additional bands           20
 real space projection scheme for non local part
 use partial core corrections
 calculate Harris-corrections to forces 
   (improved forces if not selfconsistent)
 use gradient corrections 
 use of overlap-Matrix (Vanderbilt PP)
 Gauss-broadening in eV      SIGMA  =   0.05


--------------------------------------------------------------------------------------------------------


  energy-cutoff  :      400.00
  volume of cell :      153.19
      direct lattice vectors                 reciprocal lattice vectors
     0.000000000  4.246893000  4.246893000    -0.117733129  0.117733129  0.117733129
     4.246893000  0.000000000  4.246893000     0.117733129 -0.117733129  0.117733129
     4.246893000  4.246893000  0.000000000     0.117733129  0.117733129 -0.117733129

  length of vectors
     6.006013679  6.006013679  6.006013679     0.203919761  0.203919761  0.203919761


 
 k-points in units of 2pi/SCALE and weight: k-point mesh                            
   0.02943328  0.02943328  0.02943328       0.062
  -0.02943328  0.02943328  0.02943328       0.062
  -0.02943328 -0.02943328  0.02943328       0.062
   0.02943328 -0.02943328  0.02943328       0.062
   0.08829985 -0.02943328 -0.02943328       0.062
  -0.02943328  0.08829985 -0.02943328       0.062
  -0.02943328 -0.02943328  0.08829985       0.062
   0.02943328  0.08829985 -0.02943328       0.062
   0.14716641 -0.02943328 -0.02943328       0.062
   0.02943328 -0.02943328  0.08829985       0.062
   0.02943328 -0.08829985  0.08829985       0.062
  -0.08829985  0.02943328  0.08829985       0.062
   0.02943328  0.02943328  0.08829985       0.062
  -0.02943328  0.14716641 -0.02943328       0.062
   0.08829985  0.02943328 -0.02943328       0.062
  -0.02943328  0.02943328  0.08829985       0.062
 
 k-points in reciprocal lattice and weights: k-point mesh                            
   0.25000000  0.25000000  0.25000000       0.062
   0.25000000  0.00000000  0.00000000       0.062
   0.00000000  0.00000000 -0.25000000       0.062
   0.00000000  0.25000000  0.00000000       0.062
  -0.25000000  0.25000000  0.25000000       0.062
   0.25000000 -0.25000000  0.25000000       0.062
   0.25000000  0.25000000 -0.25000000       0.062
   0.25000000  0.00000000  0.50000000       0.062
  -0.25000000  0.50000000  0.50000000       0.062
   0.25000000  0.50000000  0.00000000       0.062
   0.00000000  0.50000000 -0.25000000       0.062
   0.50000000  0.00000000 -0.25000000       0.062
   0.50000000  0.50000000  0.25000000       0.062
   0.50000000 -0.25000000  0.50000000       0.062
   0.00000000  0.25000000  0.50000000       0.062
   0.50000000  0.25000000  0.00000000       0.062
 
 position of ions in fractional coordinates (direct lattice) 
   0.12176893  0.12706428  0.12320262
   0.97735949  0.98357802  0.97866399
   0.97723264  0.98335529  0.55521382
   0.97936569  0.55901929  0.97856982
   0.99600901  0.50242518  0.49878482
   0.55411715  0.98101961  0.97982109
   0.49691383  0.00105350  0.49823106
   0.49713552  0.50230668  0.99744859
   0.49795500  0.50158847  0.49846651
   0.24649441  0.25319876  0.24874072
   0.24697776  0.25226719  0.74674805
   0.24832625  0.75038161  0.24834923
   0.24849108  0.75218218  0.74709519
   0.74548009  0.25170934  0.24856441
   0.74504886  0.25342361  0.74816691
   0.74693485  0.75108213  0.24953409
   0.74689843  0.75084985  0.74733209
 
 position of ions in cartesian coordinates  (Angst):
   1.06285675  1.04036797  1.05676805
   8.33343187  8.30702242  8.32789179
   6.53413835  6.50813613  8.32640714
   6.52997643  8.31514260  6.53335642
   4.25203172  6.34822946  6.36368968
   8.32748067  6.51447158  6.51956156
   2.12040810  4.22627386  2.11481397
   6.36930018  6.34733882  4.24452410
   4.24712649  4.23169553  4.24495418
   2.13168327  2.10321062  2.12214343
   4.24271082  4.22024719  2.12023985
   4.24150304  2.10932762  4.24140543
   6.36727058  4.22814837  4.24975230
   2.12460909  4.22160063  4.23495684
   4.25364778  6.34152762  4.24040574
   4.24950999  4.23189693  6.36191779
   6.36261836  6.34583713  6.36077668
 


--------------------------------------------------------------------------------------------------------


 k-point  1 :   0.2500 0.2500 0.2500  plane waves:    2782
 k-point  2 :   0.2500 0.0000 0.0000  plane waves:    2782
 k-point  3 :   0.0000 0.0000-0.2500  plane waves:    2782
 k-point  4 :   0.0000 0.2500 0.0000  plane waves:    2782
 k-point  5 :  -0.2500 0.2500 0.2500  plane waves:    2788
 k-point  6 :   0.2500-0.2500 0.2500  plane waves:    2788
 k-point  7 :   0.2500 0.2500-0.2500  plane waves:    2788
 k-point  8 :   0.2500 0.0000 0.5000  plane waves:    2788
 k-point  9 :  -0.2500 0.5000 0.5000  plane waves:    2788
 k-point 10 :   0.2500 0.5000 0.0000  plane waves:    2788
 k-point 11 :   0.0000 0.5000-0.2500  plane waves:    2788
 k-point 12 :   0.5000 0.0000-0.2500  plane waves:    2788
 k-point 13 :   0.5000 0.5000 0.2500  plane waves:    2788
 k-point 14 :   0.5000-0.2500 0.5000  plane waves:    2788
 k-point 15 :   0.0000 0.2500 0.5000  plane waves:    2788
 k-point 16 :   0.5000 0.2500 0.0000  plane waves:    2788

 maximum and minimum number of plane-waves per node :       326      286

 maximum number of plane-waves:      2788
 maximum index in each direction: 
   IXMAX=   10   IYMAX=   10   IZMAX=   10
   IXMIN=  -10   IYMIN=  -10   IZMIN=  -10

 WARNING: aliasing errors must be expected set NGX to  42 to avoid them
 WARNING: aliasing errors must be expected set NGY to  42 to avoid them
 WARNING: aliasing errors must be expected set NGZ to  42 to avoid them
 aliasing errors are usually negligible using standard VASP settings
 and one can safely disregard these warnings

 real space projection operators:
  total allocation   :       2381.67 KBytes
  max/ min on nodes  :        338.33        216.05


 parallel 3D FFT for wavefunctions:
    minimum data exchange during FFTs selected (reduces bandwidth)
 parallel 3D FFT for charge:
    minimum data exchange during FFTs selected (reduces bandwidth)


 total amount of memory used by VASP on root node    34504. kBytes
========================================================================

   base      :      30000. kBytes
   nonlr-proj:        973. kBytes
   fftplans  :        353. kBytes
   grid      :        883. kBytes
   one-center:         32. kBytes
   wavefun   :       2263. kBytes
 
     INWAV:  cpu time    0.0000: real time    0.0003
 Broyden mixing: mesh for mixing (old mesh)
   NGX = 19   NGY = 19   NGZ = 19
  (NGX  = 60   NGY  = 60   NGZ  = 60)
  gives a total of   6859 points

 initial charge density was supplied:
 charge density of overlapping atoms calculated
 number of electron      66.0000000 magnetization      17.0000000
 keeping initial charge density in first step


--------------------------------------------------------------------------------------------------------


 Maximum index for non-local projection operator          285
 Maximum index for augmentation-charges          421 (set IRDMAX)


--------------------------------------------------------------------------------------------------------


 First call to EWALD:  gamma=   0.331
 Maximum number of real-space cells 3x 3x 3
 Maximum number of reciprocal cells 3x 3x 3

 FEWALD executed in parallel
    FEWALD:  cpu time    0.0000: real time    0.0013


----------------------------------------- Iteration    1(   1)  ---------------------------------------


    POTLOK:  cpu time    0.0120: real time    0.0104
    SETDIJ:  cpu time    0.3560: real time    0.3588
     EDDAV:  cpu time    0.7360: real time    0.7397
       DOS:  cpu time    0.0000: real time    0.0010
    --------------------------------------------
      LOOP:  cpu time    1.1040: real time    1.1129

 eigenvalue-minimisations  :  3408
 total energy-change (2. order) : 0.2531357E+03  (-0.2683003E+04)
 number of electron      66.0000000 magnetization      17.0000000
 augmentation part       66.0000000 magnetization      17.0000000

 Free energy of the ion-electron system (eV)
  ---------------------------------------------------
  alpha Z        PSCENC =       167.07285220
  Ewald energy   TEWEN  =     -2904.94064045
  -Hartree energ DENC   =      -981.64106025
  -exchange      EXHF   =         0.00000000
  -V(xc)+E(xc)   XCENC  =      -207.33980255
  PAW double counting   =      3357.85734499    -2905.44438128
  entropy T*S    EENTRO =        -0.00367586
  eigenvalues    EBANDS =        62.13850793
  atomic energy  EATOM  =      3665.43652948
  Solvation  Ediel_sol  =         0.00000000
  ---------------------------------------------------
  free energy    TOTEN  =       253.13567422 eV

  energy without entropy =      253.13935008  energy(sigma->0) =      253.13751215


--------------------------------------------------------------------------------------------------------




----------------------------------------- Iteration    1(   2)  ---------------------------------------


     EDDAV:  cpu time    0.8040: real time    0.8047
       DOS:  cpu time    0.0000: real time    0.0004
    --------------------------------------------
      LOOP:  cpu time    0.8080: real time    0.8101

 eigenvalue-minimisations  :  4220
 total energy-change (2. order) :-0.3426659E+03  (-0.3319401E+03)
 number of electron      66.0000000 magnetization      17.0000000
 augmentation part       66.0000000 magnetization      17.0000000

 Free energy of the ion-electron system (eV)
  ---------------------------------------------------
  alpha Z        PSCENC =       167.07285220
  Ewald energy   TEWEN  =     -2904.94064045
  -Hartree energ DENC   =      -981.64106025
  -exchange      EXHF   =         0.00000000
  -V(xc)+E(xc)   XCENC  =      -207.33980255
  PAW double counting   =      3357.85734499    -2905.44438128
  entropy T*S    EENTRO =        -0.00000000
  eigenvalues    EBANDS =      -280.53110571
  atomic energy  EATOM  =      3665.43652948
  Solvation  Ediel_sol  =         0.00000000
  ---------------------------------------------------
  free energy    TOTEN  =       -89.53026356 eV

  energy without entropy =      -89.53026356  energy(sigma->0) =      -89.53026356


--------------------------------------------------------------------------------------------------------




----------------------------------------- Iteration    1(   3)  ---------------------------------------


     EDDAV:  cpu time    0.7840: real time    0.7856
       DOS:  cpu time    0.0000: real time    0.0004
    --------------------------------------------
      LOOP:  cpu time    0.7840: real time    0.7891

 eigenvalue-minimisations  :  4016
 total energy-change (2. order) :-0.1686645E+02  (-0.1677391E+02)
 number of electron      66.0000000 magnetization      17.0000000
 augmentation part       66.0000000 magnetization      17.0000000

 Free energy of the ion-electron system (eV)
  ---------------------------------------------------
  alpha Z        PSCENC =       167.07285220
  Ewald energy   TEWEN  =     -2904.94064045
  -Hartree energ DENC   =      -981.64106025
  -exchange      EXHF   =         0.00000000
  -V(xc)+E(xc)   XCENC  =      -207.33980255
  PAW double counting   =      3357.85734499    -2905.44438128
  entropy T*S    EENTRO =        -0.00000000
  eigenvalues    EBANDS =      -297.39755508
  atomic energy  EATOM  =      3665.43652948
  Solvation  Ediel_sol  =         0.00000000
  ---------------------------------------------------
  free energy    TOTEN  =      -106.39671293 eV

  energy without entropy =     -106.39671293  energy(sigma->0) =     -106.39671293


--------------------------------------------------------------------------------------------------------




----------------------------------------- Iteration    1(   4)  ---------------------------------------


     EDDAV:  cpu time    0.7760: real time    0.7746
       DOS:  cpu time    0.0000: real time    0.0004
    --------------------------------------------
      LOOP:  cpu time    0.7760: real time    0.7778

 eigenvalue-minimisations  :  3940
 total energy-change (2. order) :-0.9578759E-01  (-0.9571873E-01)
 number of electron      66.0000000 magnetization      17.0000000
 augmentation part       66.0000000 magnetization      17.0000000

 Free energy of the ion-electron system (eV)
  ---------------------------------------------------
  alpha Z        PSCENC =       167.07285220
  Ewald energy   TEWEN  =     -2904.94064045
  -Hartree energ DENC   =      -981.64106025
  -exchange      EXHF   =         0.00000000
  -V(xc)+E(xc)   XCENC  =      -207.33980255
  PAW double counting   =      3357.85734499    -2905.44438128
  entropy T*S    EENTRO =        -0.00000000
  eigenvalues    EBANDS =      -297.49334268
  atomic energy  EATOM  =      3665.43652948
  Solvation  Ediel_sol  =         0.00000000
  ---------------------------------------------------
  free energy    TOTEN  =      -106.49250053 eV

  energy without entropy =     -106.49250053  energy(sigma->0) =     -106.49250053


--------------------------------------------------------------------------------------------------------




----------------------------------------- Iteration    1(   5)  ---------------------------------------


     EDDAV:  cpu time    0.7440: real time    0.7459
       DOS:  cpu time    0.0000: real time    0.0005
    CHARGE:  cpu time    0.0200: real time    0.0192
    MIXING:  cpu time    0.0000: real time    0.0008
    --------------------------------------------
      LOOP:  cpu time    0.7640: real time    0.7690

 eigenvalue-minimisations  :  3824
 total energy-change (2. order) :-0.4513438E-03  (-0.4513304E-03)
 number of electron      63.9999890 magnetization       0.0966274
 augmentation part        6.3492490 magnetization       0.1475779

 Broyden mixing:
  rms(total) = 0.28876E+01    rms(broyden)= 0.28824E+01
  rms(prec ) = 0.46772E+01
  weight for this iteration     100.00

 Free energy of the ion-electron system (eV)
  ---------------------------------------------------
  alpha Z        PSCENC =       167.07285220
  Ewald energy   TEWEN  =     -2904.94064045
  -Hartree energ DENC   =      -981.64106025
  -exchange      EXHF   =         0.00000000
  -V(xc)+E(xc)   XCENC  =      -207.33980255
  PAW double counting   =      3357.85734499    -2905.44438128
  entropy T*S    EENTRO =        -0.00000000
  eigenvalues    EBANDS =      -297.49379402
  atomic energy  EATOM  =      3665.43652948
  Solvation  Ediel_sol  =         0.00000000
  ---------------------------------------------------
  free energy    TOTEN  =      -106.49295187 eV

  energy without entropy =     -106.49295187  energy(sigma->0) =     -106.49295187


--------------------------------------------------------------------------------------------------------




----------------------------------------- Iteration    1(   6)  ---------------------------------------


    POTLOK:  cpu time    0.0120: real time    0.0092
    SETDIJ:  cpu time    0.3560: real time    0.3563
     EDDAV:  cpu time    0.6960: real time    0.6993
       DOS:  cpu time    0.0040: real time    0.0005
    CHARGE:  cpu time    0.0160: real time    0.0179
    MIXING:  cpu time    0.0000: real time    0.0003
    --------------------------------------------
      LOOP:  cpu time    1.0840: real time    1.0859

 eigenvalue-minimisations  :  3452
 total energy-change (2. order) : 0.4220783E+01  (-0.3543803E+01)
 number of electron      63.9999909 magnetization       0.0055024
 augmentation part        5.3361348 magnetization      -0.1208498

 Broyden mixing:
  rms(total) = 0.79054E+00    rms(broyden)= 0.78920E+00
  rms(prec ) = 0.10864E+01
  weight for this iteration     100.00

 eigenvalues of (default mixing * dielectric matrix)
  average eigenvalue GAMMA=   0.8315
  0.8315

 Free energy of the ion-electron system (eV)
  ---------------------------------------------------
  alpha Z        PSCENC =       167.07285220
  Ewald energy   TEWEN  =     -2904.94064045
  -Hartree energ DENC   =     -1124.20000241
  -exchange      EXHF   =         0.00000000
  -V(xc)+E(xc)   XCENC  =      -206.23996586
  PAW double counting   =      3971.07831621    -3521.21438266
  entropy T*S    EENTRO =        -0.00000000
  eigenvalues    EBANDS =      -149.26487575
  atomic energy  EATOM  =      3665.43652948
  Solvation  Ediel_sol  =         0.00000000
  ---------------------------------------------------
  free energy    TOTEN  =      -102.27216922 eV

  energy without entropy =     -102.27216922  energy(sigma->0) =     -102.27216922


--------------------------------------------------------------------------------------------------------




----------------------------------------- Iteration    1(   7)  ---------------------------------------


    POTLOK:  cpu time    0.0080: real time    0.0088
    SETDIJ:  cpu time    0.3560: real time    0.3559
     EDDAV:  cpu time    0.7240: real time    0.7224
       DOS:  cpu time    0.0000: real time    0.0005
    CHARGE:  cpu time    0.0200: real time    0.0193
    MIXING:  cpu time    0.0000: real time    0.0003
    --------------------------------------------
      LOOP:  cpu time    1.1080: real time    1.1103

 eigenvalue-minimisations  :  3608
 total energy-change (2. order) :-0.1751777E+00  (-0.1128212E+00)
 number of electron      63.9999909 magnetization      -0.0024788
 augmentation part        5.3196377 magnetization      -0.0112390

 Broyden mixing:
  rms(total) = 0.41173E+00    rms(broyden)= 0.41165E+00
  rms(prec ) = 0.63939E+00
  weight for this iteration     100.00

 eigenvalues of (default mixing * dielectric matrix)
  average eigenvalue GAMMA=   0.9670
  0.9670  0.9670

 Free energy of the ion-electron system (eV)
  ---------------------------------------------------
  alpha Z        PSCENC =       167.07285220
  Ewald energy   TEWEN  =     -2904.94064045
  -Hartree energ DENC   =     -1129.11907990
  -exchange      EXHF   =         0.00000000
  -V(xc)+E(xc)   XCENC  =      -205.76001955
  PAW double counting   =      4196.98066075    -3746.94350254
  entropy T*S    EENTRO =        -0.00000000
  eigenvalues    EBANDS =      -145.17414689
  atomic energy  EATOM  =      3665.43652948
  Solvation  Ediel_sol  =         0.00000000
  ---------------------------------------------------
  free energy    TOTEN  =      -102.44734688 eV

  energy without entropy =     -102.44734688  energy(sigma->0) =     -102.44734688


--------------------------------------------------------------------------------------------------------




----------------------------------------- Iteration    1(   8)  ---------------------------------------


    POTLOK:  cpu time    0.0120: real time    0.0101
    SETDIJ:  cpu time    0.3520: real time    0.3558
     EDDAV:  cpu time    0.7560: real time    0.7535
       DOS:  cpu time    0.0000: real time    0.0004
    CHARGE:  cpu time    0.0160: real time    0.0175
    MIXING:  cpu time    0.0000: real time    0.0003
    --------------------------------------------
      LOOP:  cpu time    1.1360: real time    1.1406

 eigenvalue-minimisations  :  3820
 total energy-change (2. order) : 0.7762020E-01  (-0.1125617E-01)
 number of electron      63.9999909 magnetization      -0.0018358
 augmentation part        5.3365538 magnetization      -0.0028612

 Broyden mixing:
  rms(total) = 0.16959E+00    rms(broyden)= 0.16958E+00
  rms(prec ) = 0.26272E+00
  weight for this iteration     100.00

 eigenvalues of (default mixing * dielectric matrix)
  average eigenvalue GAMMA=   1.2715
  2.0724  0.9103  0.8317

 Free energy of the ion-electron system (eV)
  ---------------------------------------------------
  alpha Z        PSCENC =       167.07285220
  Ewald energy   TEWEN  =     -2904.94064045
  -Hartree energ DENC   =     -1134.50378059
  -exchange      EXHF   =         0.00000000
  -V(xc)+E(xc)   XCENC  =      -204.95080269
  PAW double counting   =      4435.63067388    -3985.44048894
  entropy T*S    EENTRO =        -0.00000000
  eigenvalues    EBANDS =      -140.67406958
  atomic energy  EATOM  =      3665.43652948
  Solvation  Ediel_sol  =         0.00000000
  ---------------------------------------------------
  free energy    TOTEN  =      -102.36972669 eV

  energy without entropy =     -102.36972669  energy(sigma->0) =     -102.36972669


--------------------------------------------------------------------------------------------------------




----------------------------------------- Iteration    1(   9)  ---------------------------------------


    POTLOK:  cpu time    0.0120: real time    0.0089
    SETDIJ:  cpu time    0.3520: real time    0.3554
     EDDAV:  cpu time    0.7360: real time    0.7359
       DOS:  cpu time    0.0000: real time    0.0005
    CHARGE:  cpu time    0.0200: real time    0.0179
    MIXING:  cpu time    0.0000: real time    0.0003
    --------------------------------------------
      LOOP:  cpu time    1.1200: real time    1.1216

 eigenvalue-minimisations  :  3692
 total energy-change (2. order) : 0.2096841E-02  (-0.4852519E-02)
 number of electron      63.9999909 magnetization      -0.0006140
 augmentation part        5.3310107 magnetization       0.0004170

 Broyden mixing:
  rms(total) = 0.54028E-01    rms(broyden)= 0.54025E-01
  rms(prec ) = 0.59895E-01
  weight for this iteration     100.00

 eigenvalues of (default mixing * dielectric matrix)
  average eigenvalue GAMMA=   1.2583
  2.4646  0.9601  0.9601  0.6486

 Free energy of the ion-electron system (eV)
  ---------------------------------------------------
  alpha Z        PSCENC =       167.07285220
  Ewald energy   TEWEN  =     -2904.94064045
  -Hartree energ DENC   =     -1140.49929967
  -exchange      EXHF   =         0.00000000
  -V(xc)+E(xc)   XCENC  =      -204.20703776
  PAW double counting   =      4579.73882582    -4129.51511052
  entropy T*S    EENTRO =        -0.00000000
  eigenvalues    EBANDS =      -135.45374896
  atomic energy  EATOM  =      3665.43652948
  Solvation  Ediel_sol  =         0.00000000
  ---------------------------------------------------
  free energy    TOTEN  =      -102.36762984 eV

  energy without entropy =     -102.36762984  energy(sigma->0) =     -102.36762984


--------------------------------------------------------------------------------------------------------




----------------------------------------- Iteration    1(  10)  ---------------------------------------


    POTLOK:  cpu time    0.0080: real time    0.0086
    SETDIJ:  cpu time    0.3560: real time    0.3557
     EDDAV:  cpu time    0.7920: real time    0.7933
       DOS:  cpu time    0.0000: real time    0.0004
    CHARGE:  cpu time    0.0200: real time    0.0176
    MIXING:  cpu time    0.0000: real time    0.0004
    --------------------------------------------
      LOOP:  cpu time    1.1760: real time    1.1789

 eigenvalue-minimisations  :  4076
 total energy-change (2. order) : 0.1379393E-02  (-0.2311061E-03)
 number of electron      63.9999909 magnetization       0.0003474
 augmentation part        5.3269550 magnetization       0.0013633

 Broyden mixing:
  rms(total) = 0.15134E-01    rms(broyden)= 0.15131E-01
  rms(prec ) = 0.20334E-01
  weight for this iteration     100.00

 eigenvalues of (default mixing * dielectric matrix)
  average eigenvalue GAMMA=   1.2106
  2.5153  1.0973  0.9452  0.8562  0.6392

 Free energy of the ion-electron system (eV)
  ---------------------------------------------------
  alpha Z        PSCENC =       167.07285220
  Ewald energy   TEWEN  =     -2904.94064045
  -Hartree energ DENC   =     -1141.12685084
  -exchange      EXHF   =         0.00000000
  -V(xc)+E(xc)   XCENC  =      -204.14209719
  PAW double counting   =      4574.43511039    -4124.22583235
  entropy T*S    EENTRO =        -0.00000000
  eigenvalues    EBANDS =      -134.87532170
  atomic energy  EATOM  =      3665.43652948
  Solvation  Ediel_sol  =         0.00000000
  ---------------------------------------------------
  free energy    TOTEN  =      -102.36625045 eV

  energy without entropy =     -102.36625045  energy(sigma->0) =     -102.36625045


--------------------------------------------------------------------------------------------------------




----------------------------------------- Iteration    1(  11)  ---------------------------------------


    POTLOK:  cpu time    0.0080: real time    0.0085
    SETDIJ:  cpu time    0.3560: real time    0.3558
     EDDAV:  cpu time    0.7320: real time    0.7309
       DOS:  cpu time    0.0000: real time    0.0005
    CHARGE:  cpu time    0.0160: real time    0.0182
    MIXING:  cpu time    0.0000: real time    0.0004
    --------------------------------------------
      LOOP:  cpu time    1.1120: real time    1.1171

 eigenvalue-minimisations  :  3752
 total energy-change (2. order) :-0.4569457E-03  (-0.6133865E-04)
 number of electron      63.9999909 magnetization       0.0001647
 augmentation part        5.3265874 magnetization      -0.0002740

 Broyden mixing:
  rms(total) = 0.71485E-02    rms(broyden)= 0.71477E-02
  rms(prec ) = 0.93165E-02
  weight for this iteration     100.00

 eigenvalues of (default mixing * dielectric matrix)
  average eigenvalue GAMMA=   1.3570
  2.6992  2.1092  0.9756  0.9756  0.7497  0.6325

 Free energy of the ion-electron system (eV)
  ---------------------------------------------------
  alpha Z        PSCENC =       167.07285220
  Ewald energy   TEWEN  =     -2904.94064045
  -Hartree energ DENC   =     -1141.18136350
  -exchange      EXHF   =         0.00000000
  -V(xc)+E(xc)   XCENC  =      -204.12245321
  PAW double counting   =      4560.55496120    -4110.35618874
  entropy T*S    EENTRO =        -0.00000000
  eigenvalues    EBANDS =      -134.83040439
  atomic energy  EATOM  =      3665.43652948
  Solvation  Ediel_sol  =         0.00000000
  ---------------------------------------------------
  free energy    TOTEN  =      -102.36670740 eV

  energy without entropy =     -102.36670740  energy(sigma->0) =     -102.36670740


--------------------------------------------------------------------------------------------------------




----------------------------------------- Iteration    1(  12)  ---------------------------------------


    POTLOK:  cpu time    0.0120: real time    0.0084
    SETDIJ:  cpu time    0.3560: real time    0.3560
     EDDAV:  cpu time    0.7480: real time    0.7493
       DOS:  cpu time    0.0000: real time    0.0005
    CHARGE:  cpu time    0.0200: real time    0.0200
    MIXING:  cpu time    0.0000: real time    0.0004
    --------------------------------------------
      LOOP:  cpu time    1.1360: real time    1.1376

 eigenvalue-minimisations  :  3852
 total energy-change (2. order) :-0.1470761E-03  (-0.1666174E-04)
 number of electron      63.9999909 magnetization      -0.0000250
 augmentation part        5.3272214 magnetization      -0.0002356

 Broyden mixing:
  rms(total) = 0.21231E-02    rms(broyden)= 0.21224E-02
  rms(prec ) = 0.28023E-02
  weight for this iteration     100.00

 eigenvalues of (default mixing * dielectric matrix)
  average eigenvalue GAMMA=   1.3269
  2.7351  2.3673  0.9976  0.9976  0.8199  0.7407  0.6299

 Free energy of the ion-electron system (eV)
  ---------------------------------------------------
  alpha Z        PSCENC =       167.07285220
  Ewald energy   TEWEN  =     -2904.94064045
  -Hartree energ DENC   =     -1141.14722995
  -exchange      EXHF   =         0.00000000
  -V(xc)+E(xc)   XCENC  =      -204.11460215
  PAW double counting   =      4552.83594883    -4102.64157498
  entropy T*S    EENTRO =        -0.00000000
  eigenvalues    EBANDS =      -134.86813746
  atomic energy  EATOM  =      3665.43652948
  Solvation  Ediel_sol  =         0.00000000
  ---------------------------------------------------
  free energy    TOTEN  =      -102.36685447 eV

  energy without entropy =     -102.36685447  energy(sigma->0) =     -102.36685447


--------------------------------------------------------------------------------------------------------




----------------------------------------- Iteration    1(  13)  ---------------------------------------


    POTLOK:  cpu time    0.0080: real time    0.0083
    SETDIJ:  cpu time    0.3560: real time    0.3559
     EDDAV:  cpu time    0.7520: real time    0.7536
       DOS:  cpu time    0.0040: real time    0.0004
    CHARGE:  cpu time    0.0160: real time    0.0189
    MIXING:  cpu time    0.0000: real time    0.0005
    --------------------------------------------
      LOOP:  cpu time    1.1360: real time    1.1405

 eigenvalue-minimisations  :  3840
 total energy-change (2. order) :-0.1032303E-04  (-0.1321710E-05)
 number of electron      63.9999909 magnetization      -0.0000035
 augmentation part        5.3272253 magnetization      -0.0000069

 Broyden mixing:
  rms(total) = 0.92192E-03    rms(broyden)= 0.92162E-03
  rms(prec ) = 0.13113E-02
  weight for this iteration     100.00

 eigenvalues of (default mixing * dielectric matrix)
  average eigenvalue GAMMA=   1.2812
  2.7050  2.4310  1.0234  0.9295  0.9295  0.9044  0.6290  0.6978

 Free energy of the ion-electron system (eV)
  ---------------------------------------------------
  alpha Z        PSCENC =       167.07285220
  Ewald energy   TEWEN  =     -2904.94064045
  -Hartree energ DENC   =     -1141.16063931
  -exchange      EXHF   =         0.00000000
  -V(xc)+E(xc)   XCENC  =      -204.11236006
  PAW double counting   =      4551.12284929    -4100.93020774
  entropy T*S    EENTRO =        -0.00000000
  eigenvalues    EBANDS =      -134.85524822
  atomic energy  EATOM  =      3665.43652948
  Solvation  Ediel_sol  =         0.00000000
  ---------------------------------------------------
  free energy    TOTEN  =      -102.36686480 eV

  energy without entropy =     -102.36686480  energy(sigma->0) =     -102.36686480


--------------------------------------------------------------------------------------------------------




----------------------------------------- Iteration    1(  14)  ---------------------------------------


    POTLOK:  cpu time    0.0120: real time    0.0084
    SETDIJ:  cpu time    0.3560: real time    0.3567
     EDDAV:  cpu time    0.7120: real time    0.7120
       DOS:  cpu time    0.0000: real time    0.0004
    CHARGE:  cpu time    0.0160: real time    0.0177
    MIXING:  cpu time    0.0000: real time    0.0005
    --------------------------------------------
      LOOP:  cpu time    1.0960: real time    1.0983

 eigenvalue-minimisations  :  3560
 total energy-change (2. order) :-0.1163427E-05  (-0.3081880E-06)
 number of electron      63.9999909 magnetization       0.0000094
 augmentation part        5.3271266 magnetization      -0.0000030

 Broyden mixing:
  rms(total) = 0.44574E-03    rms(broyden)= 0.44566E-03
  rms(prec ) = 0.57793E-03
  weight for this iteration     100.00

 eigenvalues of (default mixing * dielectric matrix)
  average eigenvalue GAMMA=   1.3487
  2.7652  2.4849  1.9232  1.0511  0.9348  0.9348  0.7633  0.6284  0.6528

 Free energy of the ion-electron system (eV)
  ---------------------------------------------------
  alpha Z        PSCENC =       167.07285220
  Ewald energy   TEWEN  =     -2904.94064045
  -Hartree energ DENC   =     -1141.17476870
  -exchange      EXHF   =         0.00000000
  -V(xc)+E(xc)   XCENC  =      -204.11137390
  PAW double counting   =      4550.54034096    -4100.34872202
  entropy T*S    EENTRO =        -0.00000000
  eigenvalues    EBANDS =      -134.84108354
  atomic energy  EATOM  =      3665.43652948
  Solvation  Ediel_sol  =         0.00000000
  ---------------------------------------------------
  free energy    TOTEN  =      -102.36686596 eV

  energy without entropy =     -102.36686596  energy(sigma->0) =     -102.36686596


--------------------------------------------------------------------------------------------------------




----------------------------------------- Iteration    1(  15)  ---------------------------------------


    POTLOK:  cpu time    0.0080: real time    0.0085
    SETDIJ:  cpu time    0.3600: real time    0.3568
     EDDAV:  cpu time    0.5480: real time    0.5481
       DOS:  cpu time    0.0000: real time    0.0004
    --------------------------------------------
      LOOP:  cpu time    0.9160: real time    0.9168

 eigenvalue-minimisations  :  2284
 total energy-change (2. order) :-0.4063440E-06  (-0.8568415E-07)
 number of electron      63.9999909 magnetization       0.0000094
 augmentation part        5.3271266 magnetization      -0.0000030

 Free energy of the ion-electron system (eV)
  ---------------------------------------------------
  alpha Z        PSCENC =       167.07285220
  Ewald energy   TEWEN  =     -2904.94064045
  -Hartree energ DENC   =     -1141.17624250
  -exchange      EXHF   =         0.00000000
  -V(xc)+E(xc)   XCENC  =      -204.11123071
  PAW double counting   =      4550.35847800    -4100.16720226
  entropy T*S    EENTRO =        -0.00000000
  eigenvalues    EBANDS =      -134.83941013
  atomic energy  EATOM  =      3665.43652948
  Solvation  Ediel_sol  =         0.00000000
  ---------------------------------------------------
  free energy    TOTEN  =      -102.36686637 eV

  energy without entropy =     -102.36686637  energy(sigma->0) =     -102.36686637


--------------------------------------------------------------------------------------------------------




 average (electrostatic) potential at core
  the test charge radii are     1.0714  0.7215
  (the norm of the test charge is              1.0000)
       1 -35.3393       2 -35.0287       3 -35.0372       4 -35.0375       5 -34.0892
       6 -35.0313       7 -34.0912       8 -34.0896       9 -34.0928      10 -69.4753
      11 -69.4761      12 -69.4760      13 -69.3486      14 -69.4779      15 -69.3471
      16 -69.3484      17 -69.3509
 
 
 
 E-fermi :   3.4143     XC(G=0): -11.0697     alpha+bet :-13.8766


 spin component 1

 k-point     1 :       0.2500    0.2500    0.2500
  band No.  band energies     occupation 
      1     -13.6481      1.00000
      2     -12.8090      1.00000
      3     -12.5910      1.00000
      4     -12.5710      1.00000
      5     -12.5689      1.00000
      6     -12.4014      1.00000
      7     -12.4004      1.00000
      8     -12.3985      1.00000
      9      -1.0536      1.00000
     10      -0.7856      1.00000
     11      -0.7837      1.00000
     12      -0.6088      1.00000
     13      -0.5693      1.00000
     14      -0.2716      1.00000
     15      -0.2709      1.00000
     16       1.4692      1.00000
     17       1.6636      1.00000
     18       1.6673      1.00000
     19       1.9767      1.00000
     20       2.0519      1.00000
     21       2.0529      1.00000
     22       2.2611      1.00000
     23       2.2645      1.00000
     24       2.2686      1.00000
     25       2.3667      1.00000
     26       2.4639      1.00000
     27       2.4655      1.00000
     28       2.7616      1.00000
     29       2.8473      1.00000
     30       2.8479      1.00000
     31       3.1762      1.00000
     32       3.1766      1.00000
     33       8.7755      0.00000
     34      10.8774      0.00000
     35      11.4541      0.00000
     36      11.7374      0.00000
     37      11.7458      0.00000
     38      12.6543      0.00000
     39      12.6873      0.00000
     40      12.6958      0.00000
     41      13.2331      0.00000
     42      13.2404      0.00000
     43      13.7515      0.00000
     44      15.3549      0.00000
     45      15.5778      0.00000
     46      15.5850      0.00000
     47      15.6048      0.00000
     48      16.1434      0.00000
     49      16.1835      0.00000
     50      16.1902      0.00000
     51      17.4378      0.00000
     52      17.4427      0.00000

 k-point     2 :       0.2500    0.0000    0.0000
  band No.  band energies     occupation 
      1     -13.6482      1.00000
      2     -12.8088      1.00000
      3     -12.5916      1.00000
      4     -12.5706      1.00000
      5     -12.5689      1.00000
      6     -12.4021      1.00000
      7     -12.3998      1.00000
      8     -12.3984      1.00000
      9      -1.0536      1.00000
     10      -0.7858      1.00000
     11      -0.7839      1.00000
     12      -0.6087      1.00000
     13      -0.5689      1.00000
     14      -0.2719      1.00000
     15      -0.2708      1.00000
     16       1.4689      1.00000
     17       1.6651      1.00000
     18       1.6669      1.00000
     19       1.9764      1.00000
     20       2.0516      1.00000
     21       2.0534      1.00000
     22       2.2607      1.00000
     23       2.2640      1.00000
     24       2.2694      1.00000
     25       2.3671      1.00000
     26       2.4628      1.00000
     27       2.4670      1.00000
     28       2.7621      1.00000
     29       2.8468      1.00000
     30       2.8477      1.00000
     31       3.1757      1.00000
     32       3.1762      1.00000
     33       8.7755      0.00000
     34      10.8771      0.00000
     35      11.4538      0.00000
     36      11.7396      0.00000
     37      11.7441      0.00000
     38      12.6512      0.00000
     39      12.6876      0.00000
     40      12.6959      0.00000
     41      13.2357      0.00000
     42      13.2416      0.00000
     43      13.7517      0.00000
     44      15.3547      0.00000
     45      15.5788      0.00000
     46      15.5807      0.00000
     47      15.6048      0.00000
     48      16.1466      0.00000
     49      16.1857      0.00000
     50      16.1885      0.00000
     51      17.4383      0.00000
     52      17.4806      0.00000

 k-point     3 :       0.0000    0.0000   -0.2500
  band No.  band energies     occupation 
      1     -13.6482      1.00000
      2     -12.8090      1.00000
      3     -12.5904      1.00000
      4     -12.5713      1.00000
      5     -12.5692      1.00000
      6     -12.4012      1.00000
      7     -12.4005      1.00000
      8     -12.3986      1.00000
      9      -1.0540      1.00000
     10      -0.7851      1.00000
     11      -0.7838      1.00000
     12      -0.6094      1.00000
     13      -0.5689      1.00000
     14      -0.2717      1.00000
     15      -0.2707      1.00000
     16       1.4696      1.00000
     17       1.6649      1.00000
     18       1.6667      1.00000
     19       1.9776      1.00000
     20       2.0516      1.00000
     21       2.0527      1.00000
     22       2.2626      1.00000
     23       2.2648      1.00000
     24       2.2667      1.00000
     25       2.3669      1.00000
     26       2.4634      1.00000
     27       2.4643      1.00000
     28       2.7617      1.00000
     29       2.8474      1.00000
     30       2.8483      1.00000
     31       3.1759      1.00000
     32       3.1763      1.00000
     33       8.7755      0.00000
     34      10.8767      0.00000
     35      11.4550      0.00000
     36      11.7352      0.00000
     37      11.7469      0.00000
     38      12.6518      0.00000
     39      12.6836      0.00000
     40      12.7006      0.00000
     41      13.2358      0.00000
     42      13.2417      0.00000
     43      13.7518      0.00000
     44      15.3552      0.00000
     45      15.5773      0.00000
     46      15.5816      0.00000
     47      15.6034      0.00000
     48      16.1474      0.00000
     49      16.1853      0.00000
     50      16.1889      0.00000
     51      17.4363      0.00000
     52      17.4469      0.00000

 k-point     4 :       0.0000    0.2500    0.0000
  band No.  band energies     occupation 
      1     -13.6482      1.00000
      2     -12.8091      1.00000
      3     -12.5891      1.00000
      4     -12.5713      1.00000
      5     -12.5704      1.00000
      6     -12.4011      1.00000
      7     -12.3999      1.00000
      8     -12.3993      1.00000
      9      -1.0542      1.00000
     10      -0.7846      1.00000
     11      -0.7839      1.00000
     12      -0.6089      1.00000
     13      -0.5695      1.00000
     14      -0.2714      1.00000
     15      -0.2709      1.00000
     16       1.4702      1.00000
     17       1.6648      1.00000
     18       1.6662      1.00000
     19       1.9782      1.00000
     20       2.0522      1.00000
     21       2.0528      1.00000
     22       2.2610      1.00000
     23       2.2631      1.00000
     24       2.2688      1.00000
     25       2.3668      1.00000
     26       2.4620      1.00000
     27       2.4650      1.00000
     28       2.7612      1.00000
     29       2.8475      1.00000
     30       2.8490      1.00000
     31       3.1757      1.00000
     32       3.1766      1.00000
     33       8.7757      0.00000
     34      10.8773      0.00000
     35      11.4548      0.00000
     36      11.7392      0.00000
     37      11.7430      0.00000
     38      12.6522      0.00000
     39      12.6896      0.00000
     40      12.6950      0.00000
     41      13.2335      0.00000
     42      13.2425      0.00000
     43      13.7517      0.00000
     44      15.3551      0.00000
     45      15.5793      0.00000
     46      15.5805      0.00000
     47      15.6038      0.00000
     48      16.1458      0.00000
     49      16.1851      0.00000
     50      16.1891      0.00000
     51      17.4374      0.00000
     52      17.4697      0.00000

 k-point     5 :      -0.2500    0.2500    0.2500
  band No.  band energies     occupation 
      1     -13.2935      1.00000
      2     -13.0021      1.00000
      3     -12.7735      1.00000
      4     -12.6207      1.00000
      5     -12.6108      1.00000
      6     -12.4514      1.00000
      7     -12.3681      1.00000
      8     -12.3654      1.00000
      9      -0.4472      1.00000
     10      -0.2260      1.00000
     11      -0.2210      1.00000
     12      -0.1580      1.00000
     13       0.0760      1.00000
     14       0.1447      1.00000
     15       0.2387      1.00000
     16       0.7662      1.00000
     17       1.0304      1.00000
     18       1.0574      1.00000
     19       1.1635      1.00000
     20       1.6423      1.00000
     21       1.6647      1.00000
     22       1.8406      1.00000
     23       1.9588      1.00000
     24       2.1633      1.00000
     25       2.2342      1.00000
     26       2.4072      1.00000
     27       2.4397      1.00000
     28       2.5180      1.00000
     29       2.6272      1.00000
     30       2.8533      1.00000
     31       2.8567      1.00000
     32       2.9462      1.00000
     33      10.2839      0.00000
     34      11.1131      0.00000
     35      11.8756      0.00000
     36      12.4361      0.00000
     37      12.4590      0.00000
     38      12.9892      0.00000
     39      13.6221      0.00000
     40      13.6893      0.00000
     41      14.0033      0.00000
     42      14.0934      0.00000
     43      14.2349      0.00000
     44      14.7356      0.00000
     45      15.1567      0.00000
     46      15.1724      0.00000
     47      15.3690      0.00000
     48      15.5589      0.00000
     49      15.6815      0.00000
     50      15.7766      0.00000
     51      16.4267      0.00000
     52      16.9049      0.00000

 k-point     6 :       0.2500   -0.2500    0.2500
  band No.  band energies     occupation 
      1     -13.2935      1.00000
      2     -13.0024      1.00000
      3     -12.7732      1.00000
      4     -12.6190      1.00000
      5     -12.6124      1.00000
      6     -12.4517      1.00000
      7     -12.3672      1.00000
      8     -12.3661      1.00000
      9      -0.4482      1.00000
     10      -0.2278      1.00000
     11      -0.2197      1.00000
     12      -0.1567      1.00000
     13       0.0771      1.00000
     14       0.1445      1.00000
     15       0.2389      1.00000
     16       0.7676      1.00000
     17       1.0291      1.00000
     18       1.0567      1.00000
     19       1.1638      1.00000
     20       1.6423      1.00000
     21       1.6647      1.00000
     22       1.8415      1.00000
     23       1.9578      1.00000
     24       2.1640      1.00000
     25       2.2343      1.00000
     26       2.4047      1.00000
     27       2.4394      1.00000
     28       2.5194      1.00000
     29       2.6257      1.00000
     30       2.8530      1.00000
     31       2.8574      1.00000
     32       2.9470      1.00000
     33      10.2845      0.00000
     34      11.1133      0.00000
     35      11.8748      0.00000
     36      12.4358      0.00000
     37      12.4549      0.00000
     38      12.9945      0.00000
     39      13.6165      0.00000
     40      13.6958      0.00000
     41      14.0143      0.00000
     42      14.0974      0.00000
     43      14.2233      0.00000
     44      14.7330      0.00000
     45      15.1561      0.00000
     46      15.1822      0.00000
     47      15.3605      0.00000
     48      15.5460      0.00000
     49      15.6780      0.00000
     50      15.7899      0.00000
     51      16.4190      0.00000
     52      16.9108      0.00000

 k-point     7 :       0.2500    0.2500   -0.2500
  band No.  band energies     occupation 
      1     -13.2936      1.00000
      2     -13.0022      1.00000
      3     -12.7735      1.00000
      4     -12.6195      1.00000
      5     -12.6116      1.00000
      6     -12.4515      1.00000
      7     -12.3671      1.00000
      8     -12.3665      1.00000
      9      -0.4481      1.00000
     10      -0.2258      1.00000
     11      -0.2227      1.00000
     12      -0.1564      1.00000
     13       0.0766      1.00000
     14       0.1446      1.00000
     15       0.2392      1.00000
     16       0.7670      1.00000
     17       1.0301      1.00000
     18       1.0571      1.00000
     19       1.1635      1.00000
     20       1.6429      1.00000
     21       1.6646      1.00000
     22       1.8414      1.00000
     23       1.9591      1.00000
     24       2.1640      1.00000
     25       2.2334      1.00000
     26       2.4060      1.00000
     27       2.4380      1.00000
     28       2.5183      1.00000
     29       2.6266      1.00000
     30       2.8534      1.00000
     31       2.8569      1.00000
     32       2.9465      1.00000
     33      10.2843      0.00000
     34      11.1120      0.00000
     35      11.8735      0.00000
     36      12.4371      0.00000
     37      12.4575      0.00000
     38      12.9918      0.00000
     39      13.6206      0.00000
     40      13.6947      0.00000
     41      14.0050      0.00000
     42      14.0955      0.00000
     43      14.2325      0.00000
     44      14.7336      0.00000
     45      15.1566      0.00000
     46      15.1768      0.00000
     47      15.3602      0.00000
     48      15.5530      0.00000
     49      15.6804      0.00000
     50      15.7875      0.00000
     51      16.4241      0.00000
     52      16.8905      0.00000

 k-point     8 :       0.2500    0.0000    0.5000
  band No.  band energies     occupation 
      1     -13.2935      1.00000
      2     -13.0023      1.00000
      3     -12.7730      1.00000
      4     -12.6204      1.00000
      5     -12.6113      1.00000
      6     -12.4515      1.00000
      7     -12.3677      1.00000
      8     -12.3657      1.00000
      9      -0.4478      1.00000
     10      -0.2261      1.00000
     11      -0.2212      1.00000
     12      -0.1578      1.00000
     13       0.0769      1.00000
     14       0.1444      1.00000
     15       0.2393      1.00000
     16       0.7670      1.00000
     17       1.0302      1.00000
     18       1.0572      1.00000
     19       1.1629      1.00000
     20       1.6429      1.00000
     21       1.6640      1.00000
     22       1.8404      1.00000
     23       1.9585      1.00000
     24       2.1643      1.00000
     25       2.2340      1.00000
     26       2.4057      1.00000
     27       2.4391      1.00000
     28       2.5191      1.00000
     29       2.6269      1.00000
     30       2.8538      1.00000
     31       2.8561      1.00000
     32       2.9465      1.00000
     33      10.2841      0.00000
     34      11.1133      0.00000
     35      11.8720      0.00000
     36      12.4397      0.00000
     37      12.4564      0.00000
     38      12.9928      0.00000
     39      13.6160      0.00000
     40      13.6958      0.00000
     41      14.0097      0.00000
     42      14.0979      0.00000
     43      14.2247      0.00000
     44      14.7333      0.00000
     45      15.1553      0.00000
     46      15.1830      0.00000
     47      15.3625      0.00000
     48      15.5492      0.00000
     49      15.6785      0.00000
     50      15.7874      0.00000
     51      16.4227      0.00000
     52      16.9112      0.00000

 k-point     9 :      -0.2500    0.5000    0.5000
  band No.  band energies     occupation 
      1     -13.2934      1.00000
      2     -13.0025      1.00000
      3     -12.7731      1.00000
      4     -12.6207      1.00000
      5     -12.6108      1.00000
      6     -12.4518      1.00000
      7     -12.3678      1.00000
      8     -12.3655      1.00000
      9      -0.4473      1.00000
     10      -0.2272      1.00000
     11      -0.2192      1.00000
     12      -0.1584      1.00000
     13       0.0765      1.00000
     14       0.1444      1.00000
     15       0.2389      1.00000
     16       0.7663      1.00000
     17       1.0293      1.00000
     18       1.0573      1.00000
     19       1.1633      1.00000
     20       1.6426      1.00000
     21       1.6642      1.00000
     22       1.8405      1.00000
     23       1.9584      1.00000
     24       2.1635      1.00000
     25       2.2343      1.00000
     26       2.4066      1.00000
     27       2.4402      1.00000
     28       2.5188      1.00000
     29       2.6266      1.00000
     30       2.8538      1.00000
     31       2.8561      1.00000
     32       2.9468      1.00000
     33      10.2837      0.00000
     34      11.1149      0.00000
     35      11.8728      0.00000
     36      12.4379      0.00000
     37      12.4542      0.00000
     38      12.9945      0.00000
     39      13.6166      0.00000
     40      13.6953      0.00000
     41      14.0142      0.00000
     42      14.0966      0.00000
     43      14.2203      0.00000
     44      14.7324      0.00000
     45      15.1558      0.00000
     46      15.1861      0.00000
     47      15.3631      0.00000
     48      15.5453      0.00000
     49      15.6768      0.00000
     50      15.7881      0.00000
     51      16.4204      0.00000
     52      16.9033      0.00000

 k-point    10 :       0.2500    0.5000    0.0000
  band No.  band energies     occupation 
      1     -13.2935      1.00000
      2     -13.0024      1.00000
      3     -12.7731      1.00000
      4     -12.6194      1.00000
      5     -12.6122      1.00000
      6     -12.4510      1.00000
      7     -12.3673      1.00000
      8     -12.3666      1.00000
      9      -0.4484      1.00000
     10      -0.2292      1.00000
     11      -0.2187      1.00000
     12      -0.1564      1.00000
     13       0.0766      1.00000
     14       0.1448      1.00000
     15       0.2388      1.00000
     16       0.7675      1.00000
     17       1.0312      1.00000
     18       1.0566      1.00000
     19       1.1625      1.00000
     20       1.6427      1.00000
     21       1.6648      1.00000
     22       1.8408      1.00000
     23       1.9594      1.00000
     24       2.1640      1.00000
     25       2.2336      1.00000
     26       2.4054      1.00000
     27       2.4379      1.00000
     28       2.5188      1.00000
     29       2.6264      1.00000
     30       2.8540      1.00000
     31       2.8563      1.00000
     32       2.9466      1.00000
     33      10.2842      0.00000
     34      11.1136      0.00000
     35      11.8712      0.00000
     36      12.4392      0.00000
     37      12.4599      0.00000
     38      12.9891      0.00000
     39      13.6250      0.00000
     40      13.6899      0.00000
     41      13.9970      0.00000
     42      14.0937      0.00000
     43      14.2393      0.00000
     44      14.7358      0.00000
     45      15.1585      0.00000
     46      15.1695      0.00000
     47      15.3640      0.00000
     48      15.5603      0.00000
     49      15.6822      0.00000
     50      15.7796      0.00000
     51      16.4305      0.00000
     52      16.8870      0.00000

 k-point    11 :       0.0000    0.5000   -0.2500
  band No.  band energies     occupation 
      1     -13.2934      1.00000
      2     -13.0025      1.00000
      3     -12.7729      1.00000
      4     -12.6188      1.00000
      5     -12.6129      1.00000
      6     -12.4515      1.00000
      7     -12.3675      1.00000
      8     -12.3660      1.00000
      9      -0.4482      1.00000
     10      -0.2264      1.00000
     11      -0.2215      1.00000
     12      -0.1565      1.00000
     13       0.0775      1.00000
     14       0.1443      1.00000
     15       0.2387      1.00000
     16       0.7678      1.00000
     17       1.0296      1.00000
     18       1.0559      1.00000
     19       1.1635      1.00000
     20       1.6421      1.00000
     21       1.6651      1.00000
     22       1.8410      1.00000
     23       1.9578      1.00000
     24       2.1647      1.00000
     25       2.2346      1.00000
     26       2.4055      1.00000
     27       2.4382      1.00000
     28       2.5199      1.00000
     29       2.6253      1.00000
     30       2.8528      1.00000
     31       2.8573      1.00000
     32       2.9474      1.00000
     33      10.2840      0.00000
     34      11.1145      0.00000
     35      11.8720      0.00000
     36      12.4375      0.00000
     37      12.4582      0.00000
     38      12.9926      0.00000
     39      13.6170      0.00000
     40      13.6944      0.00000
     41      14.0104      0.00000
     42      14.0957      0.00000
     43      14.2246      0.00000
     44      14.7338      0.00000
     45      15.1565      0.00000
     46      15.1807      0.00000
     47      15.3641      0.00000
     48      15.5494      0.00000
     49      15.6787      0.00000
     50      15.7864      0.00000
     51      16.4238      0.00000
     52      16.8973      0.00000

 k-point    12 :       0.5000    0.0000   -0.2500
  band No.  band energies     occupation 
      1     -13.2935      1.00000
      2     -13.0022      1.00000
      3     -12.7732      1.00000
      4     -12.6204      1.00000
      5     -12.6113      1.00000
      6     -12.4513      1.00000
      7     -12.3678      1.00000
      8     -12.3657      1.00000
      9      -0.4473      1.00000
     10      -0.2254      1.00000
     11      -0.2221      1.00000
     12      -0.1573      1.00000
     13       0.0765      1.00000
     14       0.1440      1.00000
     15       0.2389      1.00000
     16       0.7664      1.00000
     17       1.0299      1.00000
     18       1.0575      1.00000
     19       1.1633      1.00000
     20       1.6427      1.00000
     21       1.6648      1.00000
     22       1.8404      1.00000
     23       1.9588      1.00000
     24       2.1646      1.00000
     25       2.2340      1.00000
     26       2.4063      1.00000
     27       2.4397      1.00000
     28       2.5182      1.00000
     29       2.6266      1.00000
     30       2.8535      1.00000
     31       2.8563      1.00000
     32       2.9463      1.00000
     33      10.2840      0.00000
     34      11.1138      0.00000
     35      11.8717      0.00000
     36      12.4394      0.00000
     37      12.4590      0.00000
     38      12.9913      0.00000
     39      13.6177      0.00000
     40      13.6915      0.00000
     41      14.0053      0.00000
     42      14.0954      0.00000
     43      14.2316      0.00000
     44      14.7346      0.00000
     45      15.1584      0.00000
     46      15.1755      0.00000
     47      15.3655      0.00000
     48      15.5535      0.00000
     49      15.6821      0.00000
     50      15.7804      0.00000
     51      16.4263      0.00000
     52      16.8916      0.00000

 k-point    13 :       0.5000    0.5000    0.2500
[...]
     34      11.1136      0.00000
     35      11.8728      0.00000
     36      12.4368      0.00000
     37      12.4595      0.00000
     38      12.9919      0.00000
     39      13.6185      0.00000
     40      13.6911      0.00000
     41      14.0069      0.00000
     42      14.0948      0.00000
     43      14.2320      0.00000
     44      14.7363      0.00000
     45      15.1552      0.00000
     46      15.1757      0.00000
     47      15.3648      0.00000
     48      15.5550      0.00000
     49      15.6816      0.00000
     50      15.7805      0.00000
     51      16.4251      0.00000
     52      16.9148      0.00000

 k-point    16 :       0.5000    0.2500    0.0000
  band No.  band energies     occupation 
      1     -13.2936      1.00000
      2     -13.0022      1.00000
      3     -12.7732      1.00000
      4     -12.6195      1.00000
      5     -12.6122      1.00000
      6     -12.4514      1.00000
      7     -12.3670      1.00000
      8     -12.3666      1.00000
      9      -0.4476      1.00000
     10      -0.2283      1.00000
     11      -0.2200      1.00000
     12      -0.1568      1.00000
     13       0.0771      1.00000
     14       0.1436      1.00000
     15       0.2394      1.00000
     16       0.7665      1.00000
     17       1.0286      1.00000
     18       1.0569      1.00000
     19       1.1645      1.00000
     20       1.6431      1.00000
     21       1.6654      1.00000
     22       1.8414      1.00000
     23       1.9583      1.00000
     24       2.1651      1.00000
     25       2.2348      1.00000
     26       2.4039      1.00000
     27       2.4394      1.00000
     28       2.5181      1.00000
     29       2.6263      1.00000
     30       2.8532      1.00000
     31       2.8564      1.00000
     32       2.9464      1.00000
     33      10.2842      0.00000
     34      11.1131      0.00000
     35      11.8713      0.00000
     36      12.4400      0.00000
     37      12.4542      0.00000
     38      12.9953      0.00000
     39      13.6131      0.00000
     40      13.6998      0.00000
     41      14.0135      0.00000
     42      14.0987      0.00000
     43      14.2213      0.00000
     44      14.7295      0.00000
     45      15.1607      0.00000
     46      15.1862      0.00000
     47      15.3555      0.00000
     48      15.5417      0.00000
     49      15.6783      0.00000
     50      15.7961      0.00000
     51      16.4189      0.00000
     52      16.9042      0.00000


--------------------------------------------------------------------------------------------------------


 soft charge-density along one line, spin component           1
         0         1         2         3         4         5         6         7         8         9
 total charge-density along one line
 
 soft charge-density along one line, spin component           2
         0         1         2         3         4         5         6         7         8         9
 total charge-density along one line
 
 pseudopotential strength for first ion, spin component:           1
  3.016   9.574   0.000   0.000   0.000   0.000   0.000   0.000
  9.574  30.249   0.000   0.000   0.000   0.000   0.000   0.000
  0.000   0.000   7.463  -0.000  -0.000  10.792  -0.000  -0.000
  0.000   0.000  -0.000   7.463  -0.000  -0.000  10.792  -0.000
  0.000   0.000  -0.000  -0.000   7.463  -0.000  -0.000  10.792
  0.000   0.000  10.792  -0.000  -0.000  14.834  -0.000  -0.000
  0.000   0.000  -0.000  10.792  -0.000  -0.000  14.834  -0.000
  0.000   0.000  -0.000  -0.000  10.792  -0.000  -0.000  14.834
 -0.000  -0.000   0.000  -0.007   0.000   0.000  -0.009   0.000
 -0.000  -0.000   0.000   0.000  -0.007   0.000   0.000  -0.009
  0.000   0.000  -0.000   0.000  -0.000  -0.000   0.000  -0.000
 -0.000  -0.000  -0.007   0.000   0.000  -0.009   0.000   0.000
  0.000   0.000  -0.000   0.000   0.000  -0.000   0.000   0.000
 pseudopotential strength for first ion, spin component:           2
  3.016   9.574   0.000   0.000   0.000   0.000   0.000   0.000
  9.574  30.249   0.000   0.000   0.000   0.000   0.000   0.000
  0.000   0.000   7.463  -0.000  -0.000  10.792  -0.000  -0.000
  0.000   0.000  -0.000   7.463  -0.000  -0.000  10.792  -0.000
  0.000   0.000  -0.000  -0.000   7.463  -0.000  -0.000  10.792
  0.000   0.000  10.792  -0.000  -0.000  14.834  -0.000  -0.000
  0.000   0.000  -0.000  10.792  -0.000  -0.000  14.834  -0.000
  0.000   0.000  -0.000  -0.000  10.792  -0.000  -0.000  14.834
 -0.000  -0.000   0.000  -0.007   0.000   0.000  -0.009   0.000
 -0.000  -0.000   0.000   0.000  -0.007   0.000   0.000  -0.009
  0.000   0.000  -0.000   0.000  -0.000  -0.000   0.000  -0.000
 -0.000  -0.000  -0.007   0.000   0.000  -0.009   0.000   0.000
  0.000   0.000  -0.000   0.000   0.000  -0.000   0.000   0.000
 total augmentation occupancy for first ion, spin component:           1
  1.828  -0.090  -0.001   0.000   0.000   0.000   0.000  -0.000   0.000   0.001  -0.000  -0.000   0.000
 -0.090   0.005   0.000  -0.000  -0.000  -0.000  -0.000   0.000  -0.000  -0.000   0.000   0.000  -0.000
 -0.001   0.000   0.224   0.000   0.000  -0.022  -0.000  -0.000  -0.000  -0.000  -0.000   0.076   0.000
  0.000  -0.000   0.000   0.223  -0.000  -0.000  -0.022   0.000   0.076  -0.000  -0.000   0.001   0.000
  0.000  -0.000   0.000  -0.000   0.224  -0.000   0.000  -0.022   0.000   0.076   0.000   0.000   0.000
  0.000  -0.000  -0.022  -0.000  -0.000   0.002   0.000   0.000   0.000   0.000   0.000  -0.008  -0.000
  0.000  -0.000  -0.000  -0.022   0.000   0.000   0.002  -0.000  -0.008   0.000   0.000  -0.000  -0.000
 -0.000   0.000  -0.000   0.000  -0.022   0.000  -0.000   0.002   0.000  -0.008  -0.000  -0.000  -0.000
  0.000  -0.000  -0.000   0.076   0.000   0.000  -0.008   0.000   0.076  -0.000  -0.000   0.000   0.000
  0.001  -0.000  -0.000  -0.000   0.076   0.000   0.000  -0.008  -0.000   0.076   0.000   0.000  -0.000
 -0.000   0.000  -0.000  -0.000   0.000   0.000   0.000  -0.000  -0.000   0.000   0.037  -0.000  -0.000
 -0.000   0.000   0.076   0.001   0.000  -0.008  -0.000  -0.000   0.000   0.000  -0.000   0.076   0.000
  0.000  -0.000   0.000   0.000   0.000  -0.000  -0.000  -0.000   0.000  -0.000  -0.000   0.000   0.037
 total augmentation occupancy for first ion, spin component:           2
  0.000   0.000  -0.000  -0.000   0.000  -0.000  -0.000  -0.000   0.000   0.000   0.000   0.000  -0.000
  0.000  -0.000  -0.000  -0.000  -0.000   0.000   0.000   0.000  -0.000  -0.000  -0.000  -0.000   0.000
 -0.000  -0.000   0.000  -0.000  -0.000  -0.000  -0.000   0.000  -0.000  -0.000  -0.000   0.000   0.000
 -0.000  -0.000  -0.000   0.000  -0.000   0.000  -0.000  -0.000   0.000  -0.000   0.000   0.000  -0.000
  0.000  -0.000  -0.000  -0.000   0.000   0.000  -0.000  -0.000  -0.000   0.000  -0.000   0.000   0.000
 -0.000   0.000  -0.000   0.000   0.000   0.000   0.000  -0.000  -0.000  -0.000   0.000  -0.000   0.000
 -0.000   0.000  -0.000  -0.000  -0.000   0.000   0.000   0.000  -0.000  -0.000  -0.000  -0.000   0.000
 -0.000   0.000   0.000  -0.000  -0.000  -0.000   0.000   0.000  -0.000  -0.000   0.000  -0.000  -0.000
  0.000  -0.000  -0.000   0.000  -0.000  -0.000  -0.000  -0.000   0.000  -0.000   0.000  -0.000   0.000
  0.000  -0.000  -0.000  -0.000   0.000  -0.000  -0.000  -0.000  -0.000   0.000   0.000  -0.000   0.000
  0.000  -0.000  -0.000   0.000  -0.000   0.000  -0.000   0.000   0.000   0.000   0.000   0.000   0.000
  0.000  -0.000   0.000   0.000   0.000  -0.000  -0.000  -0.000  -0.000  -0.000   0.000   0.000  -0.000
 -0.000   0.000   0.000  -0.000   0.000   0.000   0.000  -0.000   0.000   0.000   0.000  -0.000   0.000


------------------------ aborting loop because EDIFF is reached ----------------------------------------


 


 total charge     
 
# of ion     s       p       d       tot
----------------------------------------
  1        0.262   0.339   0.165   0.766
  2        0.171   0.203   0.090   0.463
  3        0.171   0.203   0.089   0.463
  4        0.171   0.203   0.089   0.463
  5        0.131   0.156   0.068   0.355
  6        0.171   0.203   0.089   0.463
  7        0.131   0.156   0.068   0.355
  8        0.131   0.156   0.068   0.355
  9        0.131   0.156   0.068   0.355
 10        1.568   3.547   0.000   5.115
 11        1.568   3.547   0.000   5.115
 12        1.568   3.547   0.000   5.115
 13        1.567   3.580   0.000   5.148
 14        1.568   3.547   0.000   5.115
 15        1.567   3.580   0.000   5.148
 16        1.567   3.580   0.000   5.148
 17        1.567   3.580   0.000   5.148
------------------------------------------------
tot       14.014  30.283   0.793  45.090
 


 magnetization (x)
 
# of ion     s       p       d       tot
----------------------------------------
  1        0.000  -0.000   0.000  -0.000
  2        0.000   0.000   0.000   0.000
  3        0.000   0.000   0.000   0.000
  4        0.000   0.000   0.000   0.000
  5        0.000   0.000   0.000   0.000
  6        0.000   0.000   0.000   0.000
  7        0.000   0.000   0.000   0.000
  8        0.000   0.000   0.000   0.000
  9        0.000   0.000   0.000   0.000
 10        0.000  -0.000   0.000  -0.000
 11        0.000  -0.000   0.000  -0.000
 12        0.000  -0.000   0.000  -0.000
 13       -0.000  -0.000   0.000  -0.000
 14       -0.000  -0.000   0.000  -0.000
 15       -0.000  -0.000   0.000  -0.000
 16       -0.000  -0.000   0.000  -0.000
 17       -0.000  -0.000   0.000  -0.000
------------------------------------------------
tot        0.000  -0.000   0.000  -0.000
 
    CHARGE:  cpu time    0.0200: real time    0.0189
    FORLOC:  cpu time    0.0000: real time    0.0007
    FORNL :  cpu time    0.1280: real time    0.1300
    STRESS:  cpu time    0.3960: real time    0.3984
    FORCOR:  cpu time    0.0080: real time    0.0084
    FORHAR:  cpu time    0.0040: real time    0.0014
    MIXING:  cpu time    0.0000: real time    0.0005
    OFIELD:  cpu time    0.0000: real time    0.0000

  FORCE on cell =-STRESS in cart. coord.  units (eV):
  Direction    XX          YY          ZZ          XY          YZ          ZX
  --------------------------------------------------------------------------------------
  Alpha Z   167.07285   167.07285   167.07285
  Ewald    -968.10363  -968.27986  -968.56324     0.04518     0.08204    -0.02842
  Hartree   380.39797   380.39293   380.37494     0.00114     0.00667     0.00935
  E(xc)    -293.26830  -293.26524  -293.26349    -0.00159    -0.00230    -0.00017
  Local    -339.54836  -339.39451  -339.12189    -0.04011    -0.10708     0.02879
  n-local  -137.54605  -137.55398  -137.57437     0.01110     0.00999    -0.00387
  augment    54.64012    54.64232    54.64196     0.00065     0.00094     0.00053
  Kinetic  1135.47482  1135.46730  1135.48999     0.00447     0.00440     0.00052
  Fock        0.00000     0.00000     0.00000     0.00000     0.00000     0.00000
  -------------------------------------------------------------------------------------
  Total      -0.88057    -0.91818    -0.94324     0.02084    -0.00534     0.00673
  in kB      -9.20941    -9.60273    -9.86482     0.21798    -0.05581     0.07034
  external pressure =       -9.56 kB  Pullay stress =        0.00 kB


 VOLUME and BASIS-vectors are now :
 -----------------------------------------------------------------------------
  energy-cutoff  :      400.00
  volume of cell :      153.19
      direct lattice vectors                 reciprocal lattice vectors
     0.000000000  4.246893000  4.246893000    -0.117733129  0.117733129  0.117733129
     4.246893000  0.000000000  4.246893000     0.117733129 -0.117733129  0.117733129
     4.246893000  4.246893000  0.000000000     0.117733129  0.117733129 -0.117733129

  length of vectors
     6.006013679  6.006013679  6.006013679     0.203919761  0.203919761  0.203919761


 FORCES acting on ions
    electron-ion (+dipol)            ewald-force                    non-local-force                 convergence-correction
 -----------------------------------------------------------------------------------------------
   0.214E-01 -.104E+00 -.133E-01   -.330E-01 0.908E-01 0.108E-01   -.158E-01 0.217E-01 -.370E-02   0.143E-06 -.510E-05 -.110E-05
   -.699E+01 -.716E+01 -.703E+01   0.514E+01 0.527E+01 0.516E+01   0.187E+01 0.191E+01 0.188E+01   -.207E-04 -.177E-04 -.218E-04
   0.709E+01 0.701E+01 -.709E+01   -.520E+01 -.514E+01 0.520E+01   -.189E+01 -.187E+01 0.189E+01   0.182E-04 0.213E-04 -.224E-04
   0.706E+01 -.683E+01 0.726E+01   -.519E+01 0.500E+01 -.533E+01   -.188E+01 0.183E+01 -.195E+01   0.215E-04 -.218E-04 0.199E-04
   0.429E+00 -.302E+00 -.246E+00   -.362E+00 0.249E+00 0.207E+00   -.875E-01 0.438E-01 0.414E-01   0.312E-04 -.294E-04 -.271E-04
   -.723E+01 0.717E+01 0.688E+01   0.533E+01 -.528E+01 -.505E+01   0.191E+01 -.192E+01 -.183E+01   -.220E-04 0.220E-04 0.190E-04
   -.301E+00 0.327E+00 -.439E+00   0.249E+00 -.275E+00 0.368E+00   0.563E-01 -.498E-01 0.768E-01   -.294E-04 0.307E-04 -.284E-04
   -.311E+00 -.264E+00 0.370E+00   0.253E+00 0.220E+00 -.315E+00   0.459E-01 0.469E-01 -.688E-01   -.276E-04 -.281E-04 0.310E-04
   0.284E+00 0.509E+00 0.417E+00   -.231E+00 -.429E+00 -.353E+00   -.419E-01 -.105E+00 -.778E-01   0.279E-04 0.277E-04 0.293E-04
   -.878E+01 -.919E+01 -.899E+01   0.133E+02 0.138E+02 0.136E+02   -.454E+01 -.458E+01 -.458E+01   -.282E-03 -.280E-03 -.279E-03
   0.903E+01 0.891E+01 -.923E+01   -.136E+02 -.134E+02 0.138E+02   0.460E+01 0.450E+01 -.457E+01   0.279E-03 0.280E-03 -.280E-03
   0.886E+01 -.898E+01 0.916E+01   -.134E+02 0.135E+02 -.138E+02   0.451E+01 -.454E+01 0.464E+01   0.280E-03 -.283E-03 0.278E-03
   0.858E+01 -.840E+01 -.839E+01   -.127E+02 0.125E+02 0.126E+02   0.412E+01 -.410E+01 -.419E+01   0.156E-03 -.154E-03 -.155E-03
   -.920E+01 0.902E+01 0.896E+01   0.137E+02 -.136E+02 -.135E+02   -.453E+01 0.460E+01 0.451E+01   -.279E-03 0.276E-03 0.279E-03
   -.837E+01 0.843E+01 -.844E+01   0.125E+02 -.125E+02 0.125E+02   -.419E+01 0.412E+01 -.402E+01   -.155E-03 0.159E-03 -.155E-03
   -.852E+01 -.839E+01 0.850E+01   0.126E+02 0.126E+02 -.126E+02   -.410E+01 -.419E+01 0.408E+01   -.154E-03 -.154E-03 0.157E-03
   0.836E+01 0.839E+01 0.837E+01   -.125E+02 -.125E+02 -.125E+02   0.414E+01 0.410E+01 0.411E+01   0.158E-03 0.159E-03 0.155E-03
 -----------------------------------------------------------------------------------------------
   0.160E-01 0.156E+00 0.507E-01   0.302E-13 -.355E-14 -.711E-14   -.183E-01 -.176E+00 -.636E-01   0.312E-05 0.255E-05 -.200E-05
 
 
 POSITION                                       TOTAL-FORCE (eV/Angst)
 -----------------------------------------------------------------------------------
      1.06286      1.04037      1.05677        -0.027348      0.009950     -0.005385
      8.33343      8.30702      8.32789         0.023393      0.020122      0.016570
      6.53414      6.50814      8.32641        -0.004369     -0.002505      0.002945
      6.52998      8.31514      6.53336        -0.006236     -0.001181     -0.015518
      4.25203      6.34823      6.36369        -0.020217     -0.007882      0.003063
      8.32748      6.51447      6.51956         0.012993     -0.023481      0.001395
      2.12041      4.22627      2.11481         0.004688      0.003390      0.006585
      6.36930      6.34734      4.24452        -0.012551      0.003674     -0.012737
      4.24713      4.23170      4.24495         0.011358     -0.023724     -0.013901
      2.13168      2.10321      2.12214        -0.007529      0.007101     -0.000347
      4.24271      4.22025      2.12024         0.000781      0.000775      0.010797
      4.24150      2.10933      4.24141         0.013120     -0.009984      0.005820
      6.36727      4.22815      4.24975        -0.012778      0.006392      0.002055
      2.12461      4.22160      4.23496         0.018020     -0.001553     -0.004987
      4.25365      6.34153      4.24041        -0.011702      0.007609      0.020576
      4.24951      4.23190      6.36192         0.009975      0.003558     -0.011982
      6.36262      6.34584      6.36078         0.008402      0.007736     -0.004948
 -----------------------------------------------------------------------------------
    total drift:                               -0.002219     -0.020076     -0.012907


--------------------------------------------------------------------------------------------------------



  FREE ENERGIE OF THE ION-ELECTRON SYSTEM (eV)
  ---------------------------------------------------
  free  energy   TOTEN  =      -102.36686637 eV

  energy  without entropy=     -102.36686637  energy(sigma->0) =     -102.36686637
 


--------------------------------------------------------------------------------------------------------


    POTLOK:  cpu time    0.3640: real time    0.3651


--------------------------------------------------------------------------------------------------------




--------------------------------------------------------------------------------------------------------


  
 reached required accuracy - stopping structural energy minimisation
     LOOP+:  cpu time   16.5480: real time   16.6072
    4ORBIT:  cpu time    0.0000: real time    0.0000
 


 total charge     
 
# of ion     s       p       d       tot
----------------------------------------
  1        0.262   0.339   0.165   0.766
  2        0.171   0.203   0.090   0.463
  3        0.171   0.203   0.089   0.463
  4        0.171   0.203   0.089   0.463
  5        0.131   0.156   0.068   0.355
  6        0.171   0.203   0.089   0.463
  7        0.131   0.156   0.068   0.355
  8        0.131   0.156   0.068   0.355
  9        0.131   0.156   0.068   0.355
 10        1.568   3.547   0.000   5.115
 11        1.568   3.547   0.000   5.115
 12        1.568   3.547   0.000   5.115
 13        1.567   3.580   0.000   5.148
 14        1.568   3.547   0.000   5.115
 15        1.567   3.580   0.000   5.148
 16        1.567   3.580   0.000   5.148
 17        1.567   3.580   0.000   5.148
------------------------------------------------
tot       14.014  30.283   0.793  45.090
 


 magnetization (x)
 
# of ion     s       p       d       tot
----------------------------------------
  1        0.000  -0.000   0.000  -0.000
  2        0.000   0.000   0.000   0.000
  3        0.000   0.000   0.000   0.000
  4        0.000   0.000   0.000   0.000
  5        0.000   0.000   0.000   0.000
  6        0.000   0.000   0.000   0.000
  7        0.000   0.000   0.000   0.000
  8        0.000   0.000   0.000   0.000
  9        0.000   0.000   0.000   0.000
 10        0.000  -0.000   0.000  -0.000
 11        0.000  -0.000   0.000  -0.000
 12        0.000  -0.000   0.000  -0.000
 13       -0.000  -0.000   0.000  -0.000
 14       -0.000  -0.000   0.000  -0.000
 15       -0.000  -0.000   0.000  -0.000
 16       -0.000  -0.000   0.000  -0.000
 17       -0.000  -0.000   0.000  -0.000
------------------------------------------------
tot        0.000  -0.000   0.000  -0.000
 

 total amount of memory used by VASP on root node    34504. kBytes
========================================================================

   base      :      30000. kBytes
   nonlr-proj:        973. kBytes
   fftplans  :        353. kBytes
   grid      :        883. kBytes
   one-center:         32. kBytes
   wavefun   :       2263. kBytes
 
  
  
 General timing and accounting informations for this job:
 ========================================================
  
                  Total CPU time used (sec):       18.020
                            User time (sec):       17.724
                          System time (sec):        0.296
                         Elapsed time (sec):       18.415
  
                   Maximum memory used (kb):       82396.
                   Average memory used (kb):           0.
  
                          Minor page faults:        14750
                          Major page faults:           10
                 Voluntary context switches:         2243
