<?xml version="1.0" encoding="ISO-8859-1"?>
<modeling>
 <generator>
  <i name="program" type="string">vasp </i>
  <i name="version" type="string">5.4.1  </i>
  <i name="subversion" type="string">05Feb16 (build Mar 31 2016 13:39:20) complex                          parallel </i>
  <i name="platform" type="string">IFC91_ompi </i>
  <i name="date" type="string">2018 04 28 </i>
  <i name="time" type="string">12:56:46 </i>
 </generator>
 <incar>
  <i type="string" name="PREC">n</i>
  <i type="string" name="ALGO"> N</i>
  <i type="int" name="ISPIN">     2</i>
  <i type="int" name="NELM">   100</i>
  <i type="int" name="NELMIN">     4</i>
  <i type="int" name="IBRION">     2</i>
  <i name="EDIFF">      0.00000100</i>
  <i name="EDIFFG">     -0.05000000</i>
  <i type="int" name="NSW">    20</i>
  <i type="int" name="ISIF">     2</i>
  <i name="ENCUT">    400.00000000</i>
  <i name="NELECT">     64.00000000</i>
  <i type="string" name="LREAL"> A</i>
  <i type="int" name="ISMEAR">     0</i>
  <i name="SIGMA">      0.05000000</i>
  <i type="logical" name="LWAVE"> F  </i>
  <i type="logical" name="LCHARG"> F  </i>
  <i type="logical" name="LORBIT"> F  </i>
  <i type="logical" name="LASPH"> T  </i>
  <v type="int" name="KPOINT_BSE">    -1     0     0     0</v>
  <i type="int" name="NELM">   100</i>
  <i type="logical" name="LASPH"> T  </i>
 </incar>
 <kpoints>
  <generation param="Gamma">
   <v type="int" name="divisions">       2        2        2 </v>
   <v name="usershift">      0.00000000       0.00000000       0.00000000 </v>
   <v name="genvec1">      0.50000000       0.00000000       0.00000000 </v>
   <v name="genvec2">      0.00000000       0.50000000       0.00000000 </v>
   <v name="genvec3">      0.00000000       0.00000000       0.50000000 </v>
   <v name="shift">      0.00000000       0.00000000       0.00000000 </v>
  </generation>
  <varray name="kpointlist" >
   <v>       0.00000000       0.00000000       0.00000000 </v>
   <v>       0.50000000       0.00000000       0.00000000 </v>
   <v>       0.00000000       0.50000000       0.00000000 </v>
   <v>       0.50000000       0.50000000       0.00000000 </v>
   <v>       0.00000000       0.00000000       0.50000000 </v>
   <v>       0.50000000       0.00000000       0.50000000 </v>
   <v>       0.00000000       0.50000000       0.50000000 </v>
   <v>       0.50000000       0.50000000       0.50000000 </v>
  </varray>
  <varray name="weights" >
   <v>       0.12500000 </v>
   <v>       0.12500000 </v>
   <v>       0.12500000 </v>
   <v>       0.12500000 </v>
   <v>       0.12500000 </v>
   <v>       0.12500000 </v>
   <v>       0.12500000 </v>
   <v>       0.12500000 </v>
  </varray>
 </kpoints>
 <parameters>
  <separator name="general" >
   <i type="string" name="SYSTEM">unknown system</i>
   <i type="logical" name="LCOMPAT"> F  </i>
  </separator>
  <separator name="electronic" >
   <i type="string" name="PREC">n</i>
   <i name="ENMAX">    400.00000000</i>
   <i name="ENAUG">    605.39200000</i>
   <i name="EDIFF">      0.00000100</i>
   <i type="int" name="IALGO">    38</i>
   <i type="int" name="IWAVPR">    11</i>
   <i type="int" name="NBANDS">    52</i>
   <i name="NELECT">     64.00000000</i>
   <i type="int" name="TURBO">     0</i>
   <i type="int" name="IRESTART">     0</i>
   <i type="int" name="NREBOOT">     0</i>
   <i type="int" name="NMIN">     0</i>
   <i name="EREF">      0.00000000</i>
   <separator name="electronic smearing" >
    <i type="int" name="ISMEAR">     0</i>
    <i name="SIGMA">      0.05000000</i>
    <i name="KSPACING">      0.50000000</i>
    <i type="logical" name="KGAMMA"> T  </i>
   </separator>
   <separator name="electronic projectors" >
    <i type="logical" name="LREAL"> T  </i>
    <v name="ROPT">     -0.00050000     -0.00050000</v>
    <i type="int" name="LMAXPAW">  -100</i>
    <i type="int" name="LMAXMIX">     2</i>
    <i type="logical" name="NLSPLINE"> F  </i>
   </separator>
   <separator name="electronic startup" >
    <i type="int" name="ISTART">     0</i>
    <i type="int" name="ICHARG">     2</i>
    <i type="int" name="INIWAV">     1</i>
   </separator>
   <separator name="electronic spin" >
    <i type="int" name="ISPIN">     2</i>
    <i type="logical" name="LNONCOLLINEAR"> F  </i>
    <v name="MAGMOM">      1.00000000      1.00000000      1.00000000      1.00000000      1.00000000      1.00000000      1.00000000      1.00000000      1.00000000      1.00000000      1.00000000      1.00000000      1.00000000      1.00000000      1.00000000      1.00000000      1.00000000</v>
    <i name="NUPDOWN">     -1.00000000</i>
    <i type="logical" name="LSORBIT"> F  </i>
    <v name="SAXIS">      0.00000000      0.00000000      1.00000000</v>
    <i type="logical" name="LSPIRAL"> F  </i>
    <v name="QSPIRAL">      0.00000000      0.00000000      0.00000000</v>
    <i type="logical" name="LZEROZ"> F  </i>
   </separator>
   <separator name="electronic exchange-correlation" >
    <i type="logical" name="LASPH"> T  </i>
    <i type="logical" name="LMETAGGA"> F  </i>
   </separator>
   <separator name="electronic convergence" >
    <i type="int" name="NELM">   100</i>
    <i type="int" name="NELMDL">     0</i>
    <i type="int" name="NELMIN">     4</i>
    <i name="ENINI">    400.00000000</i>
    <separator name="electronic convergence detail" >
     <i type="logical" name="LDIAG"> T  </i>
     <i type="logical" name="LSUBROT"> F  </i>
     <i name="WEIMIN">      0.00100000</i>
     <i name="EBREAK">      0.00000000</i>
     <i name="DEPER">      0.30000000</i>
     <i type="int" name="NRMM">     4</i>
     <i name="TIME">      0.40000000</i>
    </separator>
   </separator>
   <separator name="electronic mixer" >
    <i name="AMIX">      0.40000000</i>
    <i name="BMIX">      1.00000000</i>
    <i name="AMIN">      0.10000000</i>
    <i name="AMIX_MAG">      1.60000000</i>
    <i name="BMIX_MAG">      1.00000000</i>
    <separator name="electronic mixer details" >
     <i type="int" name="IMIX">     4</i>
     <i type="logical" name="MIXFIRST"> F  </i>
     <i type="int" name="MAXMIX">   -45</i>
     <i name="WC">    100.00000000</i>
     <i type="int" name="INIMIX">     1</i>
     <i type="int" name="MIXPRE">     1</i>
     <i type="int" name="MREMOVE">     5</i>
    </separator>
   </separator>
   <separator name="electronic dipolcorrection" >
    <i type="logical" name="LDIPOL"> F  </i>
    <i type="logical" name="LMONO"> F  </i>
    <i type="int" name="IDIPOL">     0</i>
    <i name="EPSILON">      1.00000000</i>
    <v name="DIPOL">   -100.00000000   -100.00000000   -100.00000000</v>
    <i name="EFIELD">      0.00000000</i>
   </separator>
  </separator>
  <separator name="grids" >
   <i type="int" name="NGX">    30</i>
   <i type="int" name="NGY">    30</i>
   <i type="int" name="NGZ">    30</i>
   <i type="int" name="NGXF">    60</i>
   <i type="int" name="NGYF">    60</i>
   <i type="int" name="NGZF">    60</i>
   <i type="logical" name="ADDGRID"> F  </i>
  </separator>
  <separator name="ionic" >
   <i type="int" name="NSW">    20</i>
   <i type="int" name="IBRION">     2</i>
   <i type="int" name="ISIF">     2</i>
   <i name="PSTRESS">      0.00000000</i>
   <i name="EDIFFG">     -0.05000000</i>
   <i type="int" name="NFREE">     1</i>
   <i name="POTIM">      0.50000000</i>
   <i name="SMASS">     -3.00000000</i>
   <i name="SCALEE">      1.00000000</i>
  </separator>
  <separator name="ionic md" >
   <i name="TEBEG">      0.00010000</i>
   <i name="TEEND">      0.00010000</i>
   <i type="int" name="NBLOCK">     1</i>
   <i type="int" name="KBLOCK">    20</i>
   <i type="int" name="NPACO">   256</i>
   <i name="APACO">     16.00000000</i>
  </separator>
  <separator name="symmetry" >
   <i type="int" name="ISYM">     2</i>
   <i name="SYMPREC">      0.00001000</i>
  </separator>
  <separator name="dos" >
   <i type="logical" name="LORBIT"> F  </i>
   <v name="RWIGS">     -1.00000000     -1.00000000</v>
   <i type="int" name="NEDOS">   301</i>
   <i name="EMIN">     10.00000000</i>
   <i name="EMAX">    -10.00000000</i>
   <i name="EFERMI">      0.00000000</i>
  </separator>
  <separator name="writing" >
   <i type="int" name="NWRITE">     2</i>
   <i type="logical" name="LWAVE"> F  </i>
   <i type="logical" name="LCHARG"> F  </i>
   <i type="logical" name="LPARD"> F  </i>
   <i type="logical" name="LVTOT"> F  </i>
   <i type="logical" name="LVHAR"> F  </i>
   <i type="logical" name="LELF"> F  </i>
   <i type="logical" name="LOPTICS"> F  </i>
   <v name="STM">      0.00000000      0.00000000      0.00000000      0.00000000      0.00000000      0.00000000      0.00000000</v>
  </separator>
  <separator name="performance" >
   <i type="int" name="NPAR">     4</i>
   <i type="int" name="NSIM">     4</i>
   <i type="int" name="NBLK">    -1</i>
   <i type="logical" name="LPLANE"> T  </i>
   <i type="logical" name="LSCALAPACK"> T  </i>
   <i type="logical" name="LSCAAWARE"> F  </i>
   <i type="logical" name="LSCALU"> F  </i>
   <i type="logical" name="LASYNC"> F  </i>
   <i type="logical" name="LORBITALREAL"> F  </i>
  </separator>
  <separator name="miscellaneous" >
   <i type="int" name="IDIOT">     3</i>
   <i type="logical" name="LMUSIC"> F  </i>
   <v name="POMASS">     24.30500000     16.00000000</v>
   <v name="DARWINR">      0.00000000      0.00000000</v>
   <v name="DARWINV">      1.00000000      1.00000000</v>
   <i type="logical" name="LCORR"> T  </i>
  </separator>
  <i type="logical" name="GGA_COMPAT"> T  </i>
  <i type="logical" name="LBERRY"> F  </i>
  <i type="int" name="ICORELEVEL">     0</i>
  <i type="logical" name="LDAU"> F  </i>
  <i type="int" name="I_CONSTRAINED_M">     0</i>
  <separator name="electronic exchange-correlation" >
   <i type="string" name="GGA">--</i>
   <i type="int" name="VOSKOWN">     0</i>
   <i type="logical" name="LHFCALC"> F  </i>
   <i type="string" name="PRECFOCK"></i>
   <i type="logical" name="LSYMGRAD"> F  </i>
   <i type="logical" name="LHFONE"> F  </i>
   <i type="logical" name="LRHFCALC"> F  </i>
   <i type="logical" name="LTHOMAS"> F  </i>
   <i type="logical" name="LMODELHF"> F  </i>
   <i name="ENCUT4O">     -1.00000000</i>
   <i type="int" name="EXXOEP">     0</i>
   <i type="int" name="FOURORBIT">     0</i>
   <i name="AEXX">      0.00000000</i>
   <i name="HFALPHA">      0.00000000</i>
   <i name="MCALPHA">      0.00000000</i>
   <i name="ALDAX">      1.00000000</i>
   <i name="AGGAX">      1.00000000</i>
   <i name="ALDAC">      1.00000000</i>
   <i name="AGGAC">      1.00000000</i>
   <i type="int" name="NKREDX">     1</i>
   <i type="int" name="NKREDY">     1</i>
   <i type="int" name="NKREDZ">     1</i>
   <i type="logical" name="SHIFTRED"> F  </i>
   <i type="logical" name="ODDONLY"> F  </i>
   <i type="logical" name="EVENONLY"> F  </i>
   <i type="int" name="LMAXFOCK">     0</i>
   <i type="int" name="NMAXFOCKAE">     0</i>
   <i type="logical" name="LFOCKAEDFT"> F  </i>
   <i name="HFSCREEN">      0.00000000</i>
   <i name="HFSCREENC">      0.00000000</i>
   <i type="int" name="NBANDSGWLOW">     0</i>
  </separator>
  <separator name="vdW DFT" >
   <i type="logical" name="LUSE_VDW"> F  </i>
   <i name="Zab_VDW">     -0.84910000</i>
   <i name="PARAM1">      0.12340000</i>
   <i name="PARAM2">      1.00000000</i>
   <i name="PARAM3">      0.00000000</i>
  </separator>
  <separator name="model GW" >
   <i type="int" name="MODEL_GW">     0</i>
   <i name="MODEL_EPS0">      5.40687441</i>
   <i name="MODEL_ALPHA">      1.00000000</i>
  </separator>
  <separator name="linear response parameters" >
   <i type="logical" name="LEPSILON"> F  </i>
   <i type="logical" name="LRPA"> F  </i>
   <i type="logical" name="LNABLA"> F  </i>
   <i type="logical" name="LVEL"> F  </i>
   <i type="int" name="KINTER">     0</i>
   <i name="CSHIFT">      0.10000000</i>
   <i name="OMEGAMAX">     -1.00000000</i>
   <i name="DEG_THRESHOLD">      0.00200000</i>
  </separator>
  <separator name="orbital magnetization" >
   <i type="logical" name="NUCIND"> F  </i>
   <v name="MAGPOS">      0.00000000      0.00000000      0.00000000</v>
   <i type="logical" name="LNICSALL"> T  </i>
   <i type="logical" name="ORBITALMAG"> F  </i>
   <i type="logical" name="LMAGBLOCH"> F  </i>
   <i type="logical" name="LCHIMAG"> F  </i>
   <i type="logical" name="LGAUGE"> T  </i>
   <i type="int" name="MAGATOM">     0</i>
   <v name="MAGDIPOL">      0.00000000      0.00000000      0.00000000</v>
   <v name="AVECCONST">      0.00000000      0.00000000      0.00000000</v>
  </separator>
  <separator name="response functions" >
   <i type="logical" name="LADDER"> F  </i>
   <i type="logical" name="LFXC"> F  </i>
   <i type="logical" name="LHARTREE"> T  </i>
   <i type="int" name="IBSE">     0</i>
   <v type="int" name="KPOINT">    -1     0     0     0</v>
   <i type="logical" name="LTCTE"> F  </i>
   <i type="logical" name="LTETE"> F  </i>
   <i type="logical" name="LTRIPLET"> F  </i>
   <i type="logical" name="LFXCEPS"> F  </i>
   <i type="logical" name="LFXHEG"> F  </i>
   <i type="int" name="NATURALO">     0</i>
   <i type="logical" name="L2ORDER"> F  </i>
   <i type="logical" name="LUSEW"> F  </i>
   <i name="ENCUTGW">     -2.00000000</i>
   <i name="ENCUTGWSOFT">     -2.00000000</i>
   <i name="ENCUTLF">     -1.00000000</i>
   <i type="int" name="LMAXMP2">    -1</i>
   <i name="SCISSOR">      0.00000000</i>
   <i type="int" name="NOMEGA">     0</i>
   <i type="int" name="NOMEGAR">     0</i>
   <i type="int" name="NBANDSGW">    -1</i>
   <i type="int" name="NBANDSO">    -1</i>
   <i type="int" name="NBANDSV">    -1</i>
   <i type="int" name="NELM">   100</i>
   <i type="int" name="NELMHF">     1</i>
   <i type="int" name="DIM">     3</i>
   <i type="int" name="ANTIRES">     0</i>
   <i name="OMEGAMAX">    -30.00000000</i>
   <i name="OMEGAMIN">    -30.00000000</i>
   <i name="OMEGATL">   -200.00000000</i>
   <i type="int" name="OMEGAGRID">     0</i>
   <i name="CSHIFT">     -0.10000000</i>
   <i type="logical" name="SELFENERGY"> F  </i>
   <i type="logical" name="LSPECTRAL"> F  </i>
   <i type="logical" name="LSPECTRALGW"> F  </i>
   <i type="logical" name="LSINGLES"> F  </i>
   <i type="logical" name="LFERMIGW"> F  </i>
   <i type="logical" name="ODDONLYGW"> F  </i>
   <i type="logical" name="EVENONLYGW"> F  </i>
   <i type="int" name="NKREDLFX">     1</i>
   <i type="int" name="NKREDLFY">     1</i>
   <i type="int" name="NKREDLFZ">     1</i>
   <i type="int" name="MAXMEM">  1800</i>
   <i type="int" name="TELESCOPE">     0</i>
   <i type="int" name="TAUPAR">     1</i>
   <i type="int" name="OMEGAPAR">    -1</i>
   <i name="LAMBDA">      1.00000000</i>
  </separator>
  <separator name="External order field" >
   <i name="OFIELD_KAPPA">      0.00000000</i>
   <v name="OFIELD_K">      0.00000000      0.00000000      0.00000000</v>
   <i name="OFIELD_Q6_NEAR">      0.00000000</i>
   <i name="OFIELD_Q6_FAR">      0.00000000</i>
   <i name="OFIELD_A">      0.00000000</i>
  </separator>
 </parameters>
 <atominfo>
  <atoms>      17 </atoms>
  <types>       2 </types>
  <array name="atoms" >
   <dimension dim="1">ion</dimension>
   <field type="string">element</field>
   <field type="int">atomtype</field>
   <set>
    <rc><c>Mg</c><c>   1</c></rc>
    <rc><c>Mg</c><c>   1</c></rc>
    <rc><c>Mg</c><c>   1</c></rc>
    <rc><c>Mg</c><c>   1</c></rc>
    <rc><c>Mg</c><c>   1</c></rc>
    <rc><c>Mg</c><c>   1</c></rc>
    <rc><c>Mg</c><c>   1</c></rc>
    <rc><c>Mg</c><c>   1</c></rc>
    <rc><c>Mg</c><c>   1</c></rc>
    <rc><c>O </c><c>   2</c></rc>
    <rc><c>O </c><c>   2</c></rc>
    <rc><c>O </c><c>   2</c></rc>
    <rc><c>O </c><c>   2</c></rc>
    <rc><c>O </c><c>   2</c></rc>
    <rc><c>O </c><c>   2</c></rc>
    <rc><c>O </c><c>   2</c></rc>
    <rc><c>O </c><c>   2</c></rc>
   </set>
  </array>
  <array name="atomtypes" >
   <dimension dim="1">type</dimension>
   <field type="int">atomspertype</field>
   <field type="string">element</field>
   <field>mass</field>
   <field>valence</field>
   <field type="string">pseudopotential</field>
   <set>
    <rc><c>   9</c><c>Mg</c><c>     24.30500000</c><c>      2.00000000</c><c>  PAW_PBE Mg 13Apr2007                  </c></rc>
    <rc><c>   8</c><c>O </c><c>     16.00000000</c><c>      6.00000000</c><c>  PAW_PBE O 08Apr2002                   </c></rc>
   </set>
  </array>
 </atominfo>
 <structure name="initialpos" >
  <crystal>
   <varray name="basis" >
    <v>       0.00000000       4.24689300       4.24689300 </v>
    <v>       4.24689300       0.00000000       4.24689300 </v>
    <v>       4.24689300       4.24689300       0.00000000 </v>
   </varray>
   <i name="volume">    153.19477498 </i>
   <varray name="rec_basis" >
    <v>      -0.11773313       0.11773313       0.11773313 </v>
    <v>       0.11773313      -0.11773313       0.11773313 </v>
    <v>       0.11773313       0.11773313      -0.11773313 </v>
   </varray>
  </crystal>
  <varray name="positions" >
   <v>       0.12182448       0.12694107       0.12341773 </v>
   <v>       0.97727882       0.98394460       0.97877713 </v>
   <v>       0.97670564       0.98351994       0.55537341 </v>
   <v>       0.97991568       0.55897610       0.97795845 </v>
   <v>       0.99621213       0.50228829       0.49887864 </v>
   <v>       0.55425543       0.98039115       0.97987402 </v>
   <v>       0.49645100       0.00139093       0.49809891 </v>
   <v>       0.49712839       0.50233257       0.99765308 </v>
   <v>       0.49810120       0.50141252       0.49845598 </v>
   <v>       0.24613365       0.25387741       0.24883458 </v>
   <v>       0.24700754       0.25206063       0.74702706 </v>
   <v>       0.24836314       0.75090250       0.24838714 </v>
   <v>       0.24842828       0.75272302       0.74669812 </v>
   <v>       0.74534442       0.25143002       0.24842144 </v>
   <v>       0.74506928       0.25289289       0.74846651 </v>
   <v>       0.74736095       0.75093222       0.24909029 </v>
   <v>       0.74692896       0.75048911       0.74752053 </v>
  </varray>
 </structure>
 <calculation>
  <scstep>
   <time name="dav">    0.58    0.58</time>
   <time name="total">    1.55    1.56</time>
   <energy>
    <i name="alphaZ">    167.07285220 </i>
    <i name="ewald">  -2904.81758449 </i>
    <i name="hartreedc">   -981.69809557 </i>
    <i name="XCdc">   -207.33869182 </i>
    <i name="pawpsdc">   3357.85734499 </i>
    <i name="pawaedc">  -2905.44438128 </i>
    <i name="eentropy">     -0.00000000 </i>
    <i name="bandstr">     59.36230402 </i>
    <i name="atom">   3665.43652948 </i>
    <i name="e_fr_energy">    250.43027755 </i>
    <i name="e_wo_entrp">    250.43027755 </i>
    <i name="e_0_energy">    250.43027755 </i>
   </energy>
  </scstep>
  <scstep>
   <time name="dav">    0.66    0.66</time>
   <time name="total">    0.66    0.66</time>
   <energy>
    <i name="e_fr_energy">    -89.13780431 </i>
    <i name="e_wo_entrp">    -89.13780431 </i>
    <i name="e_0_energy">    -89.13780431 </i>
   </energy>
  </scstep>
  <scstep>
   <time name="dav">    0.64    0.65</time>
   <time name="total">    0.64    0.65</time>
   <energy>
    <i name="e_fr_energy">   -106.36058315 </i>
    <i name="e_wo_entrp">   -106.36058315 </i>
    <i name="e_0_energy">   -106.36058315 </i>
   </energy>
  </scstep>
  <scstep>
   <time name="dav">    0.62    0.63</time>
   <time name="total">    0.62    0.63</time>
   <energy>
    <i name="e_fr_energy">   -106.46244335 </i>
    <i name="e_wo_entrp">   -106.46244335 </i>
    <i name="e_0_energy">   -106.46244335 </i>
   </energy>
  </scstep>
  <scstep>
   <time name="dav">    0.63    0.63</time>
   <time name="total">    0.65    0.66</time>
   <energy>
    <i name="e_fr_energy">   -106.46293235 </i>
    <i name="e_wo_entrp">   -106.46293235 </i>
    <i name="e_0_energy">   -106.46293235 </i>
   </energy>
  </scstep>
  <scstep>
   <time name="dav">    0.59    0.59</time>
   <time name="total">    1.60    1.60</time>
   <energy>
    <i name="e_fr_energy">   -102.17606494 </i>
    <i name="e_wo_entrp">   -102.17606494 </i>
    <i name="e_0_energy">   -102.17606494 </i>
   </energy>
  </scstep>
  <scstep>
   <time name="dav">    0.58    0.58</time>
   <time name="total">    1.58    1.58</time>
   <energy>
    <i name="e_fr_energy">   -102.35207628 </i>
    <i name="e_wo_entrp">   -102.35207628 </i>
    <i name="e_0_energy">   -102.35207628 </i>
   </energy>
  </scstep>
  <scstep>
   <time name="dav">    0.63    0.63</time>
   <time name="total">    1.64    1.65</time>
   <energy>
    <i name="e_fr_energy">   -102.27549314 </i>
    <i name="e_wo_entrp">   -102.27549314 </i>
    <i name="e_0_energy">   -102.27549314 </i>
   </energy>
  </scstep>
  <scstep>
   <time name="dav">    0.60    0.60</time>
   <time name="total">    1.61    1.61</time>
   <energy>
    <i name="e_fr_energy">   -102.27330978 </i>
    <i name="e_wo_entrp">   -102.27330978 </i>
    <i name="e_0_energy">   -102.27330978 </i>
   </energy>
  </scstep>
  <scstep>
   <time name="dav">    0.64    0.64</time>
   <time name="total">    1.64    1.65</time>
   <energy>
    <i name="e_fr_energy">   -102.27188461 </i>
    <i name="e_wo_entrp">   -102.27188461 </i>
    <i name="e_0_energy">   -102.27188461 </i>
   </energy>
  </scstep>
  <scstep>
   <time name="dav">    0.63    0.63</time>
   <time name="total">    1.63    1.64</time>
   <energy>
    <i name="e_fr_energy">   -102.27234703 </i>
    <i name="e_wo_entrp">   -102.27234703 </i>
    <i name="e_0_energy">   -102.27234703 </i>
   </energy>
  </scstep>
  <scstep>
   <time name="dav">    0.60    0.61</time>
   <time name="total">    1.61    1.62</time>
   <energy>
    <i name="e_fr_energy">   -102.27249633 </i>
    <i name="e_wo_entrp">   -102.27249633 </i>
    <i name="e_0_energy">   -102.27249633 </i>
   </energy>
  </scstep>
  <scstep>
   <time name="dav">    0.64    0.65</time>
   <time name="total">    1.65    1.66</time>
   <energy>
    <i name="e_fr_energy">   -102.27250621 </i>
    <i name="e_wo_entrp">   -102.27250621 </i>
    <i name="e_0_energy">   -102.27250621 </i>
   </energy>
  </scstep>
  <scstep>
   <time name="dav">    0.61    0.61</time>
   <time name="total">    1.61    1.61</time>
   <energy>
    <i name="e_fr_energy">   -102.27250748 </i>
    <i name="e_wo_entrp">   -102.27250748 </i>
    <i name="e_0_energy">   -102.27250748 </i>
   </energy>
  </scstep>
  <scstep>
   <time name="dav">    0.45    0.45</time>
   <time name="total">    1.43    1.44</time>
   <energy>
    <i name="alphaZ">    167.07285220 </i>
    <i name="ewald">  -2904.81758449 </i>
    <i name="hartreedc">  -1142.02731700 </i>
    <i name="XCdc">   -204.05169179 </i>
    <i name="pawpsdc">   4554.87984396 </i>
    <i name="pawaedc">  -4104.72109345 </i>
    <i name="eentropy">     -0.00000000 </i>
    <i name="bandstr">   -134.04404677 </i>
    <i name="atom">   3665.43652948 </i>
    <i name="e_fr_energy">   -102.27250785 </i>
    <i name="e_wo_entrp">   -102.27250785 </i>
    <i name="e_0_energy">   -102.27250785 </i>
   </energy>
  </scstep>
  <structure>
   <crystal>
    <varray name="basis" >
     <v>       0.00000000       4.24689300       4.24689300 </v>
     <v>       4.24689300       0.00000000       4.24689300 </v>
     <v>       4.24689300       4.24689300       0.00000000 </v>
    </varray>
    <i name="volume">    153.19477498 </i>
    <varray name="rec_basis" >
     <v>      -0.11773313       0.11773313       0.11773313 </v>
     <v>       0.11773313      -0.11773313       0.11773313 </v>
     <v>       0.11773313       0.11773313      -0.11773313 </v>
    </varray>
   </crystal>
   <varray name="positions" >
    <v>       0.12182448       0.12694107       0.12341773 </v>
    <v>       0.97727882       0.98394460       0.97877713 </v>
    <v>       0.97670564       0.98351994       0.55537341 </v>
    <v>       0.97991568       0.55897610       0.97795845 </v>
    <v>       0.99621213       0.50228829       0.49887864 </v>
    <v>       0.55425543       0.98039115       0.97987402 </v>
    <v>       0.49645100       0.00139093       0.49809891 </v>
    <v>       0.49712839       0.50233257       0.99765308 </v>
    <v>       0.49810120       0.50141252       0.49845598 </v>
    <v>       0.24613365       0.25387741       0.24883458 </v>
    <v>       0.24700754       0.25206063       0.74702706 </v>
    <v>       0.24836314       0.75090250       0.24838714 </v>
    <v>       0.24842828       0.75272302       0.74669812 </v>
    <v>       0.74534442       0.25143002       0.24842144 </v>
    <v>       0.74506928       0.25289289       0.74846651 </v>
    <v>       0.74736095       0.75093222       0.24909029 </v>
    <v>       0.74692896       0.75048911       0.74752053 </v>
   </varray>
  </structure>
  <varray name="forces" >
   <v>       0.03299226       0.00829035       0.03523360 </v>
   <v>      -0.00559312       0.00720734      -0.01366507 </v>
   <v>      -0.01569106       0.00513306       0.00895087 </v>
   <v>       0.01237179       0.01730065      -0.00626048 </v>
   <v>      -0.01657793      -0.03416998      -0.00241171 </v>
   <v>       0.03072374      -0.01897517       0.00420103 </v>
   <v>      -0.01933383       0.02003339       0.00133869 </v>
   <v>      -0.02599287      -0.01520489      -0.01610657 </v>
   <v>       0.02166702      -0.01905440       0.00266892 </v>
   <v>      -0.03877473      -0.01043369      -0.02072244 </v>
   <v>       0.01047126      -0.00207688       0.01612651 </v>
   <v>      -0.01593288       0.01252586      -0.02140546 </v>
   <v>      -0.01371322       0.01805738      -0.01006194 </v>
   <v>       0.01593719       0.02438951       0.01158356 </v>
   <v>       0.00518513      -0.01710815       0.03044053 </v>
   <v>       0.02250166       0.00824697      -0.02469467 </v>
   <v>      -0.00024041      -0.00416136       0.00478465 </v>
  </varray>
  <varray name="stress" >
   <v>      -9.40873487      -0.00947097       0.11763861 </v>
   <v>      -0.00947086      -9.70414315      -0.74712288 </v>
   <v>       0.11763908      -0.74712336     -10.00056143 </v>
  </varray>
  <energy>
   <i name="e_fr_energy">   -102.27250785 </i>
   <i name="e_wo_entrp">   -102.27250785 </i>
   <i name="e_0_energy">     -0.00000000 </i>
  </energy>
  <time name="totalsc">   22.73   22.84</time>
  <eigenvalues>
   <array>
    <dimension dim="1">band</dimension>
    <dimension dim="2">kpoint</dimension>
    <dimension dim="3">spin</dimension>
    <field>eigene</field>
    <field>occ</field>
    <set>
     <set comment="spin 1">
      <set comment="kpoint 1">
       <r>  -13.7896    1.0000 </r>
       <r>  -12.6153    1.0000 </r>
       <r>  -12.5879    1.0000 </r>
       <r>  -12.5870    1.0000 </r>
       <r>  -12.5856    1.0000 </r>
       <r>  -12.3484    1.0000 </r>
       <r>  -12.3475    1.0000 </r>
       <r>  -12.3469    1.0000 </r>
       <r>   -1.3331    1.0000 </r>
       <r>   -1.0342    1.0000 </r>
       <r>   -1.0338    1.0000 </r>
       <r>   -1.0332    1.0000 </r>
       <r>   -0.7844    1.0000 </r>
       <r>   -0.4556    1.0000 </r>
       <r>   -0.4553    1.0000 </r>
       <r>    1.8312    1.0000 </r>
       <r>    1.8316    1.0000 </r>
       <r>    1.8319    1.0000 </r>
       <r>    2.1879    1.0000 </r>
       <r>    2.1887    1.0000 </r>
       <r>    2.1903    1.0000 </r>
       <r>    2.4273    1.0000 </r>
       <r>    2.4288    1.0000 </r>
       <r>    2.4306    1.0000 </r>
       <r>    2.8060    1.0000 </r>
       <r>    2.8060    1.0000 </r>
       <r>    2.8791    1.0000 </r>
       <r>    2.8793    1.0000 </r>
       <r>    2.8795    1.0000 </r>
       <r>    3.2689    1.0000 </r>
       <r>    3.2704    1.0000 </r>
       <r>    3.2705    1.0000 </r>
       <r>    7.8946    0.0000 </r>
       <r>   10.6585    0.0000 </r>
       <r>   11.1735    0.0000 </r>
       <r>   11.1765    0.0000 </r>
       <r>   11.1782    0.0000 </r>
       <r>   12.3044    0.0000 </r>
       <r>   12.3066    0.0000 </r>
       <r>   12.3157    0.0000 </r>
       <r>   12.6536    0.0000 </r>
       <r>   12.6556    0.0000 </r>
       <r>   13.4113    0.0000 </r>
       <r>   15.6086    0.0000 </r>
       <r>   15.8468    0.0000 </r>
       <r>   15.8503    0.0000 </r>
       <r>   15.8515    0.0000 </r>
       <r>   16.2563    0.0000 </r>
       <r>   16.2578    0.0000 </r>
       <r>   16.4334    0.0000 </r>
       <r>   18.6867    0.0000 </r>
       <r>   18.6884    0.0000 </r>
      </set>
      <set comment="kpoint 2">
       <r>  -13.2796    1.0000 </r>
       <r>  -13.2009    1.0000 </r>
       <r>  -12.5221    1.0000 </r>
       <r>  -12.4920    1.0000 </r>
       <r>  -12.4819    1.0000 </r>
       <r>  -12.4702    1.0000 </r>
       <r>  -12.4609    1.0000 </r>
       <r>  -12.4541    1.0000 </r>
       <r>   -0.5553    1.0000 </r>
       <r>   -0.5058    1.0000 </r>
       <r>   -0.2850    1.0000 </r>
       <r>   -0.2814    1.0000 </r>
       <r>   -0.1975    1.0000 </r>
       <r>   -0.1924    1.0000 </r>
       <r>    0.6721    1.0000 </r>
       <r>    0.7229    1.0000 </r>
       <r>    1.2968    1.0000 </r>
       <r>    1.4025    1.0000 </r>
       <r>    1.5359    1.0000 </r>
       <r>    1.5501    1.0000 </r>
       <r>    1.5804    1.0000 </r>
       <r>    1.5928    1.0000 </r>
       <r>    2.2042    1.0000 </r>
       <r>    2.2132    1.0000 </r>
       <r>    2.2562    1.0000 </r>
       <r>    2.2703    1.0000 </r>
       <r>    2.4572    1.0000 </r>
       <r>    2.5750    1.0000 </r>
       <r>    2.9699    1.0000 </r>
       <r>    2.9738    1.0000 </r>
       <r>    3.0251    1.0000 </r>
       <r>    3.0267    1.0000 </r>
       <r>   10.0752    0.0000 </r>
       <r>   10.3849    0.0000 </r>
       <r>   12.0841    0.0000 </r>
       <r>   12.3296    0.0000 </r>
       <r>   12.3441    0.0000 </r>
       <r>   13.0723    0.0000 </r>
       <r>   13.2395    0.0000 </r>
       <r>   13.2520    0.0000 </r>
       <r>   14.0700    0.0000 </r>
       <r>   14.1074    0.0000 </r>
       <r>   14.4053    0.0000 </r>
       <r>   14.5794    0.0000 </r>
       <r>   15.1007    0.0000 </r>
       <r>   15.1312    0.0000 </r>
       <r>   15.3747    0.0000 </r>
       <r>   15.9973    0.0000 </r>
       <r>   16.0420    0.0000 </r>
       <r>   16.0847    0.0000 </r>
       <r>   16.4096    0.0000 </r>
       <r>   16.4873    0.0000 </r>
      </set>
      <set comment="kpoint 3">
       <r>  -13.2795    1.0000 </r>
       <r>  -13.2010    1.0000 </r>
       <r>  -12.5232    1.0000 </r>
       <r>  -12.4914    1.0000 </r>
       <r>  -12.4812    1.0000 </r>
       <r>  -12.4706    1.0000 </r>
       <r>  -12.4621    1.0000 </r>
       <r>  -12.4526    1.0000 </r>
       <r>   -0.5553    1.0000 </r>
       <r>   -0.5072    1.0000 </r>
       <r>   -0.2857    1.0000 </r>
       <r>   -0.2821    1.0000 </r>
       <r>   -0.1967    1.0000 </r>
       <r>   -0.1913    1.0000 </r>
       <r>    0.6735    1.0000 </r>
       <r>    0.7226    1.0000 </r>
       <r>    1.2974    1.0000 </r>
       <r>    1.4026    1.0000 </r>
       <r>    1.5394    1.0000 </r>
       <r>    1.5462    1.0000 </r>
       <r>    1.5810    1.0000 </r>
       <r>    1.5920    1.0000 </r>
       <r>    2.2050    1.0000 </r>
       <r>    2.2103    1.0000 </r>
       <r>    2.2590    1.0000 </r>
       <r>    2.2691    1.0000 </r>
       <r>    2.4577    1.0000 </r>
       <r>    2.5749    1.0000 </r>
       <r>    2.9682    1.0000 </r>
       <r>    2.9741    1.0000 </r>
       <r>    3.0254    1.0000 </r>
       <r>    3.0283    1.0000 </r>
       <r>   10.0743    0.0000 </r>
       <r>   10.3840    0.0000 </r>
       <r>   12.0848    0.0000 </r>
       <r>   12.3304    0.0000 </r>
       <r>   12.3389    0.0000 </r>
       <r>   13.0747    0.0000 </r>
       <r>   13.2393    0.0000 </r>
       <r>   13.2521    0.0000 </r>
       <r>   14.0736    0.0000 </r>
       <r>   14.1085    0.0000 </r>
       <r>   14.4056    0.0000 </r>
       <r>   14.5825    0.0000 </r>
       <r>   15.1019    0.0000 </r>
       <r>   15.1245    0.0000 </r>
       <r>   15.3724    0.0000 </r>
       <r>   16.0041    0.0000 </r>
       <r>   16.0456    0.0000 </r>
       <r>   16.0813    0.0000 </r>
       <r>   16.4024    0.0000 </r>
       <r>   16.4699    0.0000 </r>
      </set>
      <set comment="kpoint 4">
       <r>  -13.0953    1.0000 </r>
       <r>  -13.0864    1.0000 </r>
       <r>  -12.6651    1.0000 </r>
       <r>  -12.6564    1.0000 </r>
       <r>  -12.6489    1.0000 </r>
       <r>  -12.6481    1.0000 </r>
       <r>  -12.3050    1.0000 </r>
       <r>  -12.3037    1.0000 </r>
       <r>   -0.2234    1.0000 </r>
       <r>   -0.1444    1.0000 </r>
       <r>    0.0601    1.0000 </r>
       <r>    0.0613    1.0000 </r>
       <r>    0.2577    1.0000 </r>
       <r>    0.3970    1.0000 </r>
       <r>    0.6128    1.0000 </r>
       <r>    0.6710    1.0000 </r>
       <r>    0.8177    1.0000 </r>
       <r>    0.8337    1.0000 </r>
       <r>    1.3864    1.0000 </r>
       <r>    1.3874    1.0000 </r>
       <r>    1.3922    1.0000 </r>
       <r>    1.4684    1.0000 </r>
       <r>    1.5751    1.0000 </r>
       <r>    1.5757    1.0000 </r>
       <r>    2.4976    1.0000 </r>
       <r>    2.4983    1.0000 </r>
       <r>    2.5735    1.0000 </r>
       <r>    2.5740    1.0000 </r>
       <r>    2.7214    1.0000 </r>
       <r>    2.7230    1.0000 </r>
       <r>    2.7983    1.0000 </r>
       <r>    2.8843    1.0000 </r>
       <r>   10.9871    0.0000 </r>
       <r>   11.0013    0.0000 </r>
       <r>   12.2579    0.0000 </r>
       <r>   12.5159    0.0000 </r>
       <r>   12.5220    0.0000 </r>
       <r>   12.8579    0.0000 </r>
       <r>   13.8028    0.0000 </r>
       <r>   13.9675    0.0000 </r>
       <r>   13.9716    0.0000 </r>
       <r>   14.4086    0.0000 </r>
       <r>   14.6638    0.0000 </r>
       <r>   14.9629    0.0000 </r>
       <r>   14.9842    0.0000 </r>
       <r>   15.1597    0.0000 </r>
       <r>   15.2292    0.0000 </r>
       <r>   15.3248    0.0000 </r>
       <r>   15.3288    0.0000 </r>
       <r>   15.5567    0.0000 </r>
       <r>   16.5419    0.0000 </r>
       <r>   17.1045    0.0000 </r>
      </set>
      <set comment="kpoint 5">
       <r>  -13.2798    1.0000 </r>
       <r>  -13.2008    1.0000 </r>
       <r>  -12.5214    1.0000 </r>
       <r>  -12.4924    1.0000 </r>
       <r>  -12.4848    1.0000 </r>
       <r>  -12.4686    1.0000 </r>
       <r>  -12.4612    1.0000 </r>
       <r>  -12.4528    1.0000 </r>
       <r>   -0.5572    1.0000 </r>
       <r>   -0.5055    1.0000 </r>
       <r>   -0.2846    1.0000 </r>
       <r>   -0.2801    1.0000 </r>
       <r>   -0.1971    1.0000 </r>
       <r>   -0.1934    1.0000 </r>
       <r>    0.6721    1.0000 </r>
       <r>    0.7240    1.0000 </r>
       <r>    1.2990    1.0000 </r>
       <r>    1.4027    1.0000 </r>
       <r>    1.5403    1.0000 </r>
       <r>    1.5471    1.0000 </r>
       <r>    1.5812    1.0000 </r>
       <r>    1.5887    1.0000 </r>
       <r>    2.2074    1.0000 </r>
       <r>    2.2129    1.0000 </r>
       <r>    2.2573    1.0000 </r>
       <r>    2.2648    1.0000 </r>
       <r>    2.4543    1.0000 </r>
       <r>    2.5771    1.0000 </r>
       <r>    2.9724    1.0000 </r>
       <r>    2.9762    1.0000 </r>
       <r>    3.0236    1.0000 </r>
       <r>    3.0247    1.0000 </r>
       <r>   10.0758    0.0000 </r>
       <r>   10.3832    0.0000 </r>
       <r>   12.0842    0.0000 </r>
       <r>   12.3322    0.0000 </r>
       <r>   12.3405    0.0000 </r>
       <r>   13.0739    0.0000 </r>
       <r>   13.2413    0.0000 </r>
       <r>   13.2456    0.0000 </r>
       <r>   14.0884    0.0000 </r>
       <r>   14.0990    0.0000 </r>
       <r>   14.4033    0.0000 </r>
       <r>   14.5837    0.0000 </r>
       <r>   15.1070    0.0000 </r>
       <r>   15.1169    0.0000 </r>
       <r>   15.3726    0.0000 </r>
       <r>   16.0156    0.0000 </r>
       <r>   16.0306    0.0000 </r>
       <r>   16.0825    0.0000 </r>
       <r>   16.4329    0.0000 </r>
       <r>   16.5055    0.0000 </r>
      </set>
      <set comment="kpoint 6">
       <r>  -13.0941    1.0000 </r>
       <r>  -13.0875    1.0000 </r>
       <r>  -12.6659    1.0000 </r>
       <r>  -12.6559    1.0000 </r>
       <r>  -12.6496    1.0000 </r>
       <r>  -12.6473    1.0000 </r>
       <r>  -12.3047    1.0000 </r>
       <r>  -12.3040    1.0000 </r>
       <r>   -0.2235    1.0000 </r>
       <r>   -0.1438    1.0000 </r>
       <r>    0.0602    1.0000 </r>
       <r>    0.0606    1.0000 </r>
       <r>    0.2568    1.0000 </r>
       <r>    0.3982    1.0000 </r>
       <r>    0.6146    1.0000 </r>
       <r>    0.6690    1.0000 </r>
       <r>    0.8177    1.0000 </r>
       <r>    0.8338    1.0000 </r>
       <r>    1.3831    1.0000 </r>
       <r>    1.3881    1.0000 </r>
       <r>    1.3945    1.0000 </r>
       <r>    1.4670    1.0000 </r>
       <r>    1.5738    1.0000 </r>
       <r>    1.5776    1.0000 </r>
       <r>    2.4975    1.0000 </r>
       <r>    2.4980    1.0000 </r>
       <r>    2.5721    1.0000 </r>
       <r>    2.5768    1.0000 </r>
       <r>    2.7209    1.0000 </r>
       <r>    2.7233    1.0000 </r>
       <r>    2.7984    1.0000 </r>
       <r>    2.8844    1.0000 </r>
       <r>   10.9867    0.0000 </r>
       <r>   11.0018    0.0000 </r>
       <r>   12.2577    0.0000 </r>
       <r>   12.5137    0.0000 </r>
       <r>   12.5233    0.0000 </r>
       <r>   12.8600    0.0000 </r>
       <r>   13.8005    0.0000 </r>
       <r>   13.9646    0.0000 </r>
       <r>   13.9682    0.0000 </r>
       <r>   14.4126    0.0000 </r>
       <r>   14.6669    0.0000 </r>
       <r>   14.9639    0.0000 </r>
       <r>   14.9844    0.0000 </r>
       <r>   15.1641    0.0000 </r>
       <r>   15.2287    0.0000 </r>
       <r>   15.3239    0.0000 </r>
       <r>   15.3298    0.0000 </r>
       <r>   15.5524    0.0000 </r>
       <r>   16.5347    0.0000 </r>
       <r>   17.1072    0.0000 </r>
      </set>
      <set comment="kpoint 7">
       <r>  -13.0941    1.0000 </r>
       <r>  -13.0874    1.0000 </r>
       <r>  -12.6657    1.0000 </r>
       <r>  -12.6563    1.0000 </r>
       <r>  -12.6490    1.0000 </r>
       <r>  -12.6476    1.0000 </r>
       <r>  -12.3044    1.0000 </r>
       <r>  -12.3042    1.0000 </r>
       <r>   -0.2233    1.0000 </r>
       <r>   -0.1436    1.0000 </r>
       <r>    0.0603    1.0000 </r>
       <r>    0.0605    1.0000 </r>
       <r>    0.2565    1.0000 </r>
       <r>    0.3982    1.0000 </r>
       <r>    0.6145    1.0000 </r>
       <r>    0.6686    1.0000 </r>
       <r>    0.8177    1.0000 </r>
       <r>    0.8337    1.0000 </r>
       <r>    1.3830    1.0000 </r>
       <r>    1.3889    1.0000 </r>
       <r>    1.3938    1.0000 </r>
       <r>    1.4672    1.0000 </r>
       <r>    1.5741    1.0000 </r>
       <r>    1.5766    1.0000 </r>
       <r>    2.4967    1.0000 </r>
       <r>    2.4991    1.0000 </r>
       <r>    2.5732    1.0000 </r>
       <r>    2.5769    1.0000 </r>
       <r>    2.7229    1.0000 </r>
       <r>    2.7232    1.0000 </r>
       <r>    2.7964    1.0000 </r>
       <r>    2.8842    1.0000 </r>
       <r>   10.9865    0.0000 </r>
       <r>   11.0020    0.0000 </r>
       <r>   12.2590    0.0000 </r>
       <r>   12.5146    0.0000 </r>
       <r>   12.5225    0.0000 </r>
       <r>   12.8595    0.0000 </r>
       <r>   13.7993    0.0000 </r>
       <r>   13.9644    0.0000 </r>
       <r>   13.9684    0.0000 </r>
       <r>   14.4125    0.0000 </r>
       <r>   14.6673    0.0000 </r>
       <r>   14.9609    0.0000 </r>
       <r>   14.9850    0.0000 </r>
       <r>   15.1659    0.0000 </r>
       <r>   15.2321    0.0000 </r>
       <r>   15.3237    0.0000 </r>
       <r>   15.3292    0.0000 </r>
       <r>   15.5485    0.0000 </r>
       <r>   16.5349    0.0000 </r>
       <r>   17.1052    0.0000 </r>
      </set>
      <set comment="kpoint 8">
       <r>  -13.2786    1.0000 </r>
       <r>  -13.2021    1.0000 </r>
       <r>  -12.5239    1.0000 </r>
       <r>  -12.4853    1.0000 </r>
       <r>  -12.4804    1.0000 </r>
       <r>  -12.4703    1.0000 </r>
       <r>  -12.4686    1.0000 </r>
       <r>  -12.4525    1.0000 </r>
       <r>   -0.5520    1.0000 </r>
       <r>   -0.5082    1.0000 </r>
       <r>   -0.2853    1.0000 </r>
       <r>   -0.2848    1.0000 </r>
       <r>   -0.1937    1.0000 </r>
       <r>   -0.1915    1.0000 </r>
       <r>    0.6731    1.0000 </r>
       <r>    0.7208    1.0000 </r>
       <r>    1.2933    1.0000 </r>
       <r>    1.4048    1.0000 </r>
       <r>    1.5358    1.0000 </r>
       <r>    1.5436    1.0000 </r>
       <r>    1.5852    1.0000 </r>
       <r>    1.5910    1.0000 </r>
       <r>    2.2013    1.0000 </r>
       <r>    2.2063    1.0000 </r>
       <r>    2.2639    1.0000 </r>
       <r>    2.2742    1.0000 </r>
       <r>    2.4632    1.0000 </r>
       <r>    2.5703    1.0000 </r>
       <r>    2.9645    1.0000 </r>
       <r>    2.9686    1.0000 </r>
       <r>    3.0305    1.0000 </r>
       <r>    3.0334    1.0000 </r>
       <r>   10.0722    0.0000 </r>
       <r>   10.3893    0.0000 </r>
       <r>   12.0845    0.0000 </r>
       <r>   12.3317    0.0000 </r>
       <r>   12.3366    0.0000 </r>
       <r>   13.0796    0.0000 </r>
       <r>   13.2431    0.0000 </r>
       <r>   13.2542    0.0000 </r>
       <r>   14.0647    0.0000 </r>
       <r>   14.0890    0.0000 </r>
       <r>   14.4153    0.0000 </r>
       <r>   14.5718    0.0000 </r>
       <r>   15.1156    0.0000 </r>
       <r>   15.1334    0.0000 </r>
       <r>   15.3714    0.0000 </r>
       <r>   16.0101    0.0000 </r>
       <r>   16.0411    0.0000 </r>
       <r>   16.0727    0.0000 </r>
       <r>   16.4088    0.0000 </r>
       <r>   16.4512    0.0000 </r>
      </set>
     </set>
     <set comment="spin 2">
      <set comment="kpoint 1">
       <r>  -13.7897    1.0000 </r>
       <r>  -12.6153    1.0000 </r>
       <r>  -12.5879    1.0000 </r>
       <r>  -12.5870    1.0000 </r>
       <r>  -12.5856    1.0000 </r>
       <r>  -12.3485    1.0000 </r>
       <r>  -12.3475    1.0000 </r>
       <r>  -12.3470    1.0000 </r>
       <r>   -1.3331    1.0000 </r>
       <r>   -1.0342    1.0000 </r>
       <r>   -1.0338    1.0000 </r>
       <r>   -1.0332    1.0000 </r>
       <r>   -0.7844    1.0000 </r>
       <r>   -0.4556    1.0000 </r>
       <r>   -0.4553    1.0000 </r>
       <r>    1.8312    1.0000 </r>
       <r>    1.8315    1.0000 </r>
       <r>    1.8319    1.0000 </r>
       <r>    2.1879    1.0000 </r>
       <r>    2.1887    1.0000 </r>
       <r>    2.1903    1.0000 </r>
       <r>    2.4272    1.0000 </r>
       <r>    2.4287    1.0000 </r>
       <r>    2.4305    1.0000 </r>
       <r>    2.8059    1.0000 </r>
       <r>    2.8060    1.0000 </r>
       <r>    2.8790    1.0000 </r>
       <r>    2.8793    1.0000 </r>
       <r>    2.8795    1.0000 </r>
       <r>    3.2689    1.0000 </r>
       <r>    3.2704    1.0000 </r>
       <r>    3.2705    1.0000 </r>
       <r>    7.8946    0.0000 </r>
       <r>   10.6585    0.0000 </r>
       <r>   11.1735    0.0000 </r>
       <r>   11.1765    0.0000 </r>
       <r>   11.1782    0.0000 </r>
       <r>   12.3044    0.0000 </r>
       <r>   12.3066    0.0000 </r>
       <r>   12.3158    0.0000 </r>
       <r>   12.6536    0.0000 </r>
       <r>   12.6556    0.0000 </r>
       <r>   13.4114    0.0000 </r>
       <r>   15.6086    0.0000 </r>
       <r>   15.8468    0.0000 </r>
       <r>   15.8503    0.0000 </r>
       <r>   15.8516    0.0000 </r>
       <r>   16.2563    0.0000 </r>
       <r>   16.2578    0.0000 </r>
       <r>   16.4334    0.0000 </r>
       <r>   18.6867    0.0000 </r>
       <r>   18.6918    0.0000 </r>
      </set>
      <set comment="kpoint 2">
       <r>  -13.2796    1.0000 </r>
       <r>  -13.2010    1.0000 </r>
       <r>  -12.5222    1.0000 </r>
       <r>  -12.4920    1.0000 </r>
       <r>  -12.4819    1.0000 </r>
       <r>  -12.4702    1.0000 </r>
       <r>  -12.4609    1.0000 </r>
       <r>  -12.4541    1.0000 </r>
       <r>   -0.5553    1.0000 </r>
       <r>   -0.5058    1.0000 </r>
       <r>   -0.2850    1.0000 </r>
       <r>   -0.2814    1.0000 </r>
       <r>   -0.1975    1.0000 </r>
       <r>   -0.1924    1.0000 </r>
       <r>    0.6721    1.0000 </r>
       <r>    0.7229    1.0000 </r>
       <r>    1.2968    1.0000 </r>
       <r>    1.4025    1.0000 </r>
       <r>    1.5359    1.0000 </r>
       <r>    1.5501    1.0000 </r>
       <r>    1.5804    1.0000 </r>
       <r>    1.5928    1.0000 </r>
       <r>    2.2042    1.0000 </r>
       <r>    2.2131    1.0000 </r>
       <r>    2.2562    1.0000 </r>
       <r>    2.2703    1.0000 </r>
       <r>    2.4572    1.0000 </r>
       <r>    2.5750    1.0000 </r>
       <r>    2.9699    1.0000 </r>
       <r>    2.9738    1.0000 </r>
       <r>    3.0251    1.0000 </r>
       <r>    3.0267    1.0000 </r>
       <r>   10.0752    0.0000 </r>
       <r>   10.3849    0.0000 </r>
       <r>   12.0841    0.0000 </r>
       <r>   12.3296    0.0000 </r>
       <r>   12.3442    0.0000 </r>
       <r>   13.0723    0.0000 </r>
       <r>   13.2396    0.0000 </r>
       <r>   13.2520    0.0000 </r>
       <r>   14.0700    0.0000 </r>
       <r>   14.1074    0.0000 </r>
       <r>   14.4053    0.0000 </r>
       <r>   14.5794    0.0000 </r>
       <r>   15.1007    0.0000 </r>
       <r>   15.1312    0.0000 </r>
       <r>   15.3747    0.0000 </r>
       <r>   15.9973    0.0000 </r>
       <r>   16.0420    0.0000 </r>
       <r>   16.0847    0.0000 </r>
       <r>   16.4058    0.0000 </r>
       <r>   16.4531    0.0000 </r>
      </set>
      <set comment="kpoint 3">
       <r>  -13.2796    1.0000 </r>
       <r>  -13.2010    1.0000 </r>
       <r>  -12.5233    1.0000 </r>
       <r>  -12.4915    1.0000 </r>
       <r>  -12.4812    1.0000 </r>
       <r>  -12.4707    1.0000 </r>
       <r>  -12.4622    1.0000 </r>
       <r>  -12.4526    1.0000 </r>
       <r>   -0.5553    1.0000 </r>
       <r>   -0.5072    1.0000 </r>
       <r>   -0.2857    1.0000 </r>
       <r>   -0.2821    1.0000 </r>
       <r>   -0.1967    1.0000 </r>
       <r>   -0.1913    1.0000 </r>
       <r>    0.6735    1.0000 </r>
       <r>    0.7226    1.0000 </r>
       <r>    1.2974    1.0000 </r>
       <r>    1.4026    1.0000 </r>
       <r>    1.5394    1.0000 </r>
       <r>    1.5462    1.0000 </r>
       <r>    1.5810    1.0000 </r>
       <r>    1.5920    1.0000 </r>
       <r>    2.2050    1.0000 </r>
       <r>    2.2103    1.0000 </r>
       <r>    2.2590    1.0000 </r>
       <r>    2.2691    1.0000 </r>
       <r>    2.4577    1.0000 </r>
       <r>    2.5749    1.0000 </r>
       <r>    2.9682    1.0000 </r>
       <r>    2.9741    1.0000 </r>
       <r>    3.0254    1.0000 </r>
       <r>    3.0282    1.0000 </r>
       <r>   10.0743    0.0000 </r>
       <r>   10.3840    0.0000 </r>
       <r>   12.0848    0.0000 </r>
       <r>   12.3304    0.0000 </r>
       <r>   12.3389    0.0000 </r>
       <r>   13.0748    0.0000 </r>
       <r>   13.2394    0.0000 </r>
       <r>   13.2522    0.0000 </r>
       <r>   14.0736    0.0000 </r>
       <r>   14.1085    0.0000 </r>
       <r>   14.4056    0.0000 </r>
       <r>   14.5825    0.0000 </r>
       <r>   15.1019    0.0000 </r>
       <r>   15.1245    0.0000 </r>
       <r>   15.3724    0.0000 </r>
       <r>   16.0041    0.0000 </r>
       <r>   16.0456    0.0000 </r>
       <r>   16.0813    0.0000 </r>
       <r>   16.4003    0.0000 </r>
       <r>   16.4520    0.0000 </r>
      </set>
      <set comment="kpoint 4">
       <r>  -13.0953    1.0000 </r>
       <r>  -13.0864    1.0000 </r>
       <r>  -12.6651    1.0000 </r>
       <r>  -12.6564    1.0000 </r>
       <r>  -12.6490    1.0000 </r>
       <r>  -12.6481    1.0000 </r>
       <r>  -12.3050    1.0000 </r>
       <r>  -12.3038    1.0000 </r>
       <r>   -0.2234    1.0000 </r>
       <r>   -0.1444    1.0000 </r>
       <r>    0.0600    1.0000 </r>
       <r>    0.0613    1.0000 </r>
       <r>    0.2577    1.0000 </r>
       <r>    0.3970    1.0000 </r>
       <r>    0.6128    1.0000 </r>
       <r>    0.6710    1.0000 </r>
       <r>    0.8177    1.0000 </r>
       <r>    0.8337    1.0000 </r>
       <r>    1.3863    1.0000 </r>
       <r>    1.3874    1.0000 </r>
       <r>    1.3922    1.0000 </r>
       <r>    1.4684    1.0000 </r>
       <r>    1.5751    1.0000 </r>
       <r>    1.5757    1.0000 </r>
       <r>    2.4976    1.0000 </r>
       <r>    2.4982    1.0000 </r>
       <r>    2.5735    1.0000 </r>
       <r>    2.5740    1.0000 </r>
       <r>    2.7214    1.0000 </r>
       <r>    2.7230    1.0000 </r>
       <r>    2.7982    1.0000 </r>
       <r>    2.8843    1.0000 </r>
       <r>   10.9871    0.0000 </r>
       <r>   11.0013    0.0000 </r>
       <r>   12.2579    0.0000 </r>
       <r>   12.5159    0.0000 </r>
       <r>   12.5220    0.0000 </r>
       <r>   12.8579    0.0000 </r>
       <r>   13.8028    0.0000 </r>
       <r>   13.9675    0.0000 </r>
       <r>   13.9716    0.0000 </r>
       <r>   14.4086    0.0000 </r>
       <r>   14.6638    0.0000 </r>
       <r>   14.9629    0.0000 </r>
       <r>   14.9843    0.0000 </r>
       <r>   15.1598    0.0000 </r>
       <r>   15.2292    0.0000 </r>
       <r>   15.3248    0.0000 </r>
       <r>   15.3288    0.0000 </r>
       <r>   15.5568    0.0000 </r>
       <r>   16.5419    0.0000 </r>
       <r>   17.1050    0.0000 </r>
      </set>
      <set comment="kpoint 5">
       <r>  -13.2798    1.0000 </r>
       <r>  -13.2008    1.0000 </r>
       <r>  -12.5214    1.0000 </r>
       <r>  -12.4924    1.0000 </r>
       <r>  -12.4848    1.0000 </r>
       <r>  -12.4686    1.0000 </r>
       <r>  -12.4613    1.0000 </r>
       <r>  -12.4529    1.0000 </r>
       <r>   -0.5572    1.0000 </r>
       <r>   -0.5055    1.0000 </r>
       <r>   -0.2846    1.0000 </r>
       <r>   -0.2801    1.0000 </r>
       <r>   -0.1971    1.0000 </r>
       <r>   -0.1934    1.0000 </r>
       <r>    0.6721    1.0000 </r>
       <r>    0.7240    1.0000 </r>
       <r>    1.2990    1.0000 </r>
       <r>    1.4027    1.0000 </r>
       <r>    1.5403    1.0000 </r>
       <r>    1.5471    1.0000 </r>
       <r>    1.5811    1.0000 </r>
       <r>    1.5887    1.0000 </r>
       <r>    2.2074    1.0000 </r>
       <r>    2.2129    1.0000 </r>
       <r>    2.2573    1.0000 </r>
       <r>    2.2648    1.0000 </r>
       <r>    2.4542    1.0000 </r>
       <r>    2.5771    1.0000 </r>
       <r>    2.9723    1.0000 </r>
       <r>    2.9762    1.0000 </r>
       <r>    3.0235    1.0000 </r>
       <r>    3.0247    1.0000 </r>
       <r>   10.0758    0.0000 </r>
       <r>   10.3832    0.0000 </r>
       <r>   12.0842    0.0000 </r>
       <r>   12.3322    0.0000 </r>
       <r>   12.3405    0.0000 </r>
       <r>   13.0739    0.0000 </r>
       <r>   13.2413    0.0000 </r>
       <r>   13.2457    0.0000 </r>
       <r>   14.0884    0.0000 </r>
       <r>   14.0990    0.0000 </r>
       <r>   14.4033    0.0000 </r>
       <r>   14.5837    0.0000 </r>
       <r>   15.1070    0.0000 </r>
       <r>   15.1170    0.0000 </r>
       <r>   15.3726    0.0000 </r>
       <r>   16.0156    0.0000 </r>
       <r>   16.0306    0.0000 </r>
       <r>   16.0825    0.0000 </r>
       <r>   16.4284    0.0000 </r>
       <r>   16.4699    0.0000 </r>
      </set>
      <set comment="kpoint 6">
       <r>  -13.0941    1.0000 </r>
       <r>  -13.0875    1.0000 </r>
       <r>  -12.6659    1.0000 </r>
       <r>  -12.6559    1.0000 </r>
       <r>  -12.6496    1.0000 </r>
       <r>  -12.6474    1.0000 </r>
       <r>  -12.3047    1.0000 </r>
       <r>  -12.3040    1.0000 </r>
       <r>   -0.2235    1.0000 </r>
       <r>   -0.1438    1.0000 </r>
       <r>    0.0602    1.0000 </r>
       <r>    0.0606    1.0000 </r>
       <r>    0.2567    1.0000 </r>
       <r>    0.3982    1.0000 </r>
       <r>    0.6146    1.0000 </r>
       <r>    0.6689    1.0000 </r>
       <r>    0.8177    1.0000 </r>
       <r>    0.8338    1.0000 </r>
       <r>    1.3830    1.0000 </r>
       <r>    1.3881    1.0000 </r>
       <r>    1.3945    1.0000 </r>
       <r>    1.4670    1.0000 </r>
       <r>    1.5738    1.0000 </r>
       <r>    1.5776    1.0000 </r>
       <r>    2.4975    1.0000 </r>
       <r>    2.4980    1.0000 </r>
       <r>    2.5721    1.0000 </r>
       <r>    2.5768    1.0000 </r>
       <r>    2.7209    1.0000 </r>
       <r>    2.7232    1.0000 </r>
       <r>    2.7984    1.0000 </r>
       <r>    2.8844    1.0000 </r>
       <r>   10.9867    0.0000 </r>
       <r>   11.0018    0.0000 </r>
       <r>   12.2577    0.0000 </r>
       <r>   12.5137    0.0000 </r>
       <r>   12.5233    0.0000 </r>
       <r>   12.8600    0.0000 </r>
       <r>   13.8005    0.0000 </r>
       <r>   13.9646    0.0000 </r>
       <r>   13.9682    0.0000 </r>
       <r>   14.4126    0.0000 </r>
       <r>   14.6669    0.0000 </r>
       <r>   14.9639    0.0000 </r>
       <r>   14.9844    0.0000 </r>
       <r>   15.1641    0.0000 </r>
       <r>   15.2287    0.0000 </r>
       <r>   15.3239    0.0000 </r>
       <r>   15.3298    0.0000 </r>
       <r>   15.5524    0.0000 </r>
       <r>   16.5348    0.0000 </r>
       <r>   17.1060    0.0000 </r>
      </set>
      <set comment="kpoint 7">
       <r>  -13.0942    1.0000 </r>
       <r>  -13.0874    1.0000 </r>
       <r>  -12.6658    1.0000 </r>
       <r>  -12.6563    1.0000 </r>
       <r>  -12.6491    1.0000 </r>
       <r>  -12.6477    1.0000 </r>
       <r>  -12.3045    1.0000 </r>
       <r>  -12.3042    1.0000 </r>
       <r>   -0.2233    1.0000 </r>
       <r>   -0.1436    1.0000 </r>
       <r>    0.0603    1.0000 </r>
       <r>    0.0605    1.0000 </r>
       <r>    0.2565    1.0000 </r>
       <r>    0.3982    1.0000 </r>
       <r>    0.6145    1.0000 </r>
       <r>    0.6686    1.0000 </r>
       <r>    0.8177    1.0000 </r>
       <r>    0.8337    1.0000 </r>
       <r>    1.3830    1.0000 </r>
       <r>    1.3889    1.0000 </r>
       <r>    1.3938    1.0000 </r>
       <r>    1.4672    1.0000 </r>
       <r>    1.5741    1.0000 </r>
       <r>    1.5766    1.0000 </r>
       <r>    2.4967    1.0000 </r>
       <r>    2.4991    1.0000 </r>
       <r>    2.5732    1.0000 </r>
       <r>    2.5769    1.0000 </r>
       <r>    2.7228    1.0000 </r>
       <r>    2.7231    1.0000 </r>
       <r>    2.7964    1.0000 </r>
       <r>    2.8842    1.0000 </r>
       <r>   10.9865    0.0000 </r>
       <r>   11.0020    0.0000 </r>
       <r>   12.2590    0.0000 </r>
       <r>   12.5146    0.0000 </r>
       <r>   12.5225    0.0000 </r>
       <r>   12.8595    0.0000 </r>
       <r>   13.7993    0.0000 </r>
       <r>   13.9644    0.0000 </r>
       <r>   13.9684    0.0000 </r>
       <r>   14.4125    0.0000 </r>
       <r>   14.6673    0.0000 </r>
       <r>   14.9609    0.0000 </r>
       <r>   14.9851    0.0000 </r>
       <r>   15.1659    0.0000 </r>
       <r>   15.2321    0.0000 </r>
       <r>   15.3237    0.0000 </r>
       <r>   15.3292    0.0000 </r>
       <r>   15.5485    0.0000 </r>
       <r>   16.5349    0.0000 </r>
       <r>   17.1103    0.0000 </r>
      </set>
      <set comment="kpoint 8">
       <r>  -13.2786    1.0000 </r>
       <r>  -13.2021    1.0000 </r>
       <r>  -12.5239    1.0000 </r>
       <r>  -12.4854    1.0000 </r>
       <r>  -12.4804    1.0000 </r>
       <r>  -12.4704    1.0000 </r>
       <r>  -12.4686    1.0000 </r>
       <r>  -12.4525    1.0000 </r>
       <r>   -0.5520    1.0000 </r>
       <r>   -0.5082    1.0000 </r>
       <r>   -0.2853    1.0000 </r>
       <r>   -0.2848    1.0000 </r>
       <r>   -0.1937    1.0000 </r>
       <r>   -0.1915    1.0000 </r>
       <r>    0.6730    1.0000 </r>
       <r>    0.7208    1.0000 </r>
       <r>    1.2933    1.0000 </r>
       <r>    1.4047    1.0000 </r>
       <r>    1.5358    1.0000 </r>
       <r>    1.5436    1.0000 </r>
       <r>    1.5852    1.0000 </r>
       <r>    1.5910    1.0000 </r>
       <r>    2.2013    1.0000 </r>
       <r>    2.2063    1.0000 </r>
       <r>    2.2639    1.0000 </r>
       <r>    2.2741    1.0000 </r>
       <r>    2.4632    1.0000 </r>
       <r>    2.5703    1.0000 </r>
       <r>    2.9645    1.0000 </r>
       <r>    2.9685    1.0000 </r>
       <r>    3.0305    1.0000 </r>
       <r>    3.0334    1.0000 </r>
       <r>   10.0722    0.0000 </r>
       <r>   10.3893    0.0000 </r>
       <r>   12.0845    0.0000 </r>
       <r>   12.3317    0.0000 </r>
       <r>   12.3366    0.0000 </r>
       <r>   13.0796    0.0000 </r>
       <r>   13.2431    0.0000 </r>
       <r>   13.2542    0.0000 </r>
       <r>   14.0647    0.0000 </r>
       <r>   14.0890    0.0000 </r>
       <r>   14.4154    0.0000 </r>
       <r>   14.5718    0.0000 </r>
       <r>   15.1156    0.0000 </r>
       <r>   15.1334    0.0000 </r>
       <r>   15.3714    0.0000 </r>
       <r>   16.0101    0.0000 </r>
       <r>   16.0411    0.0000 </r>
       <r>   16.0727    0.0000 </r>
       <r>   16.4058    0.0000 </r>
       <r>   16.4375    0.0000 </r>
      </set>
     </set>
    </set>
   </array>
  </eigenvalues>
  <separator name="orbital magnetization" >
   <v name="MAGDIPOLOUT">      0.00000000      0.00000000      0.00000000</v>
  </separator>
  <dos>
   <i name="efermi">      3.53786026 </i>
   <total>
    <array>
     <dimension dim="1">gridpoints</dimension>
     <dimension dim="2">spin</dimension>
     <field>energy</field>
     <field>total</field>
     <field>integrated</field>
     <set>
      <set comment="spin 1">
       <r>   -15.4137     0.0000     0.0000 </r>
       <r>   -15.2946     0.0000     0.0000 </r>
       <r>   -15.1755     0.0000     0.0000 </r>
       <r>   -15.0564     0.0000     0.0000 </r>
       <r>   -14.9373     0.0000     0.0000 </r>
       <r>   -14.8182     0.0000     0.0000 </r>
       <r>   -14.6991     0.0000     0.0000 </r>
       <r>   -14.5800     0.0000     0.0000 </r>
       <r>   -14.4609     0.0000     0.0000 </r>
       <r>   -14.3418     0.0000     0.0000 </r>
       <r>   -14.2227     0.0000     0.0000 </r>
       <r>   -14.1037     0.0000     0.0000 </r>
       <r>   -13.9846     0.0000     0.0000 </r>
       <r>   -13.8655     0.0168     0.0020 </r>
       <r>   -13.7464     0.9169     0.1112 </r>
       <r>   -13.6273     0.1159     0.1250 </r>
       <r>   -13.5082     0.0000     0.1250 </r>
       <r>   -13.3891     0.0040     0.1255 </r>
       <r>   -13.2700     2.6442     0.4404 </r>
       <r>   -13.1509     5.7098     1.1204 </r>
       <r>   -13.0318     6.0307     1.8387 </r>
       <r>   -12.9127     0.3049     1.8750 </r>
       <r>   -12.7936     0.0008     1.8751 </r>
       <r>   -12.6745     3.7373     2.3202 </r>
       <r>   -12.5554    13.4093     3.9172 </r>
       <r>   -12.4363    21.1530     6.4365 </r>
       <r>   -12.3172     8.4728     7.4456 </r>
       <r>   -12.1981     4.6462     7.9990 </r>
       <r>   -12.0790     0.0084     8.0000 </r>
       <r>   -11.9599     0.0000     8.0000 </r>
       <r>   -11.8408     0.0000     8.0000 </r>
       <r>   -11.7217     0.0000     8.0000 </r>
       <r>   -11.6026     0.0000     8.0000 </r>
       <r>   -11.4835     0.0000     8.0000 </r>
       <r>   -11.3644     0.0000     8.0000 </r>
       <r>   -11.2453     0.0000     8.0000 </r>
       <r>   -11.1262     0.0000     8.0000 </r>
       <r>   -11.0071     0.0000     8.0000 </r>
       <r>   -10.8880     0.0000     8.0000 </r>
       <r>   -10.7689     0.0000     8.0000 </r>
       <r>   -10.6498     0.0000     8.0000 </r>
       <r>   -10.5307     0.0000     8.0000 </r>
       <r>   -10.4116     0.0000     8.0000 </r>
       <r>   -10.2925     0.0000     8.0000 </r>
       <r>   -10.1734     0.0000     8.0000 </r>
       <r>   -10.0543     0.0000     8.0000 </r>
       <r>    -9.9352     0.0000     8.0000 </r>
       <r>    -9.8161     0.0000     8.0000 </r>
       <r>    -9.6970     0.0000     8.0000 </r>
       <r>    -9.5779     0.0000     8.0000 </r>
       <r>    -9.4588     0.0000     8.0000 </r>
       <r>    -9.3397     0.0000     8.0000 </r>
       <r>    -9.2206     0.0000     8.0000 </r>
       <r>    -9.1015     0.0000     8.0000 </r>
       <r>    -8.9824     0.0000     8.0000 </r>
       <r>    -8.8633     0.0000     8.0000 </r>
       <r>    -8.7442     0.0000     8.0000 </r>
       <r>    -8.6251     0.0000     8.0000 </r>
       <r>    -8.5060     0.0000     8.0000 </r>
       <r>    -8.3869     0.0000     8.0000 </r>
       <r>    -8.2678     0.0000     8.0000 </r>
       <r>    -8.1487     0.0000     8.0000 </r>
       <r>    -8.0296     0.0000     8.0000 </r>
       <r>    -7.9105     0.0000     8.0000 </r>
       <r>    -7.7914     0.0000     8.0000 </r>
       <r>    -7.6723     0.0000     8.0000 </r>
       <r>    -7.5532     0.0000     8.0000 </r>
       <r>    -7.4341     0.0000     8.0000 </r>
       <r>    -7.3150     0.0000     8.0000 </r>
       <r>    -7.1959     0.0000     8.0000 </r>
       <r>    -7.0768     0.0000     8.0000 </r>
       <r>    -6.9577     0.0000     8.0000 </r>
       <r>    -6.8386     0.0000     8.0000 </r>
       <r>    -6.7195     0.0000     8.0000 </r>
       <r>    -6.6004     0.0000     8.0000 </r>
       <r>    -6.4813     0.0000     8.0000 </r>
       <r>    -6.3622     0.0000     8.0000 </r>
       <r>    -6.2431     0.0000     8.0000 </r>
       <r>    -6.1240     0.0000     8.0000 </r>
       <r>    -6.0049     0.0000     8.0000 </r>
       <r>    -5.8858     0.0000     8.0000 </r>
       <r>    -5.7667     0.0000     8.0000 </r>
       <r>    -5.6476     0.0000     8.0000 </r>
       <r>    -5.5285     0.0000     8.0000 </r>
       <r>    -5.4094     0.0000     8.0000 </r>
       <r>    -5.2903     0.0000     8.0000 </r>
       <r>    -5.1712     0.0000     8.0000 </r>
       <r>    -5.0521     0.0000     8.0000 </r>
       <r>    -4.9330     0.0000     8.0000 </r>
       <r>    -4.8139     0.0000     8.0000 </r>
       <r>    -4.6948     0.0000     8.0000 </r>
       <r>    -4.5757     0.0000     8.0000 </r>
       <r>    -4.4566     0.0000     8.0000 </r>
       <r>    -4.3375     0.0000     8.0000 </r>
       <r>    -4.2184     0.0000     8.0000 </r>
       <r>    -4.0994     0.0000     8.0000 </r>
       <r>    -3.9803     0.0000     8.0000 </r>
       <r>    -3.8612     0.0000     8.0000 </r>
       <r>    -3.7421     0.0000     8.0000 </r>
       <r>    -3.6230     0.0000     8.0000 </r>
       <r>    -3.5039     0.0000     8.0000 </r>
       <r>    -3.3848     0.0000     8.0000 </r>
       <r>    -3.2657     0.0000     8.0000 </r>
       <r>    -3.1466     0.0000     8.0000 </r>
       <r>    -3.0275     0.0000     8.0000 </r>
       <r>    -2.9084     0.0000     8.0000 </r>
       <r>    -2.7893     0.0000     8.0000 </r>
       <r>    -2.6702     0.0000     8.0000 </r>
       <r>    -2.5511     0.0000     8.0000 </r>
       <r>    -2.4320     0.0000     8.0000 </r>
       <r>    -2.3129     0.0000     8.0000 </r>
       <r>    -2.1938     0.0000     8.0000 </r>
       <r>    -2.0747     0.0000     8.0000 </r>
       <r>    -1.9556     0.0000     8.0000 </r>
       <r>    -1.8365     0.0000     8.0000 </r>
       <r>    -1.7174     0.0000     8.0000 </r>
       <r>    -1.5983     0.0000     8.0000 </r>
       <r>    -1.4792     0.0000     8.0000 </r>
       <r>    -1.3601     0.2340     8.0279 </r>
       <r>    -1.2410     0.8108     8.1244 </r>
       <r>    -1.1219     0.0247     8.1274 </r>
       <r>    -1.0028     2.5275     8.4284 </r>
       <r>    -0.8837     0.6039     8.5003 </r>
       <r>    -0.7646     0.7452     8.5891 </r>
       <r>    -0.6455     0.3241     8.6277 </r>
       <r>    -0.5264     4.5536     9.1700 </r>
       <r>    -0.4073     5.7292     9.8523 </r>
       <r>    -0.2882     4.0975    10.3403 </r>
       <r>    -0.1691    14.5760    12.0763 </r>
       <r>    -0.0500     4.5999    12.6242 </r>
       <r>     0.0691     3.7620    13.0722 </r>
       <r>     0.1882     2.6229    13.3846 </r>
       <r>     0.3073     2.8411    13.7230 </r>
       <r>     0.4264     2.7165    14.0465 </r>
       <r>     0.5455     0.7437    14.1351 </r>
       <r>     0.6646     6.1550    14.8681 </r>
       <r>     0.7837     9.0485    15.9458 </r>
       <r>     0.9028     5.5977    16.6125 </r>
       <r>     1.0219     0.1052    16.6250 </r>
       <r>     1.1410     0.0000    16.6250 </r>
       <r>     1.2601     0.6357    16.7007 </r>
       <r>     1.3792     8.3245    17.6922 </r>
       <r>     1.4983    12.4629    19.1765 </r>
       <r>     1.6174    20.1388    21.5750 </r>
       <r>     1.7365     2.5303    21.8763 </r>
       <r>     1.8556     2.3560    22.1569 </r>
       <r>     1.9747     0.7814    22.2500 </r>
       <r>     2.0938     0.0171    22.2520 </r>
       <r>     2.2129     7.6777    23.1664 </r>
       <r>     2.3320    12.0053    24.5963 </r>
       <r>     2.4511     4.9140    25.1815 </r>
       <r>     2.5702    13.5918    26.8003 </r>
       <r>     2.6893     6.9708    27.6305 </r>
       <r>     2.8084     8.3290    28.6225 </r>
       <r>     2.9275     8.7439    29.6639 </r>
       <r>     3.0466    13.8694    31.3157 </r>
       <r>     3.1657     2.6017    31.6256 </r>
       <r>     3.2848     2.0813    31.8734 </r>
       <r>     3.4039     1.0625    32.0000 </r>
       <r>     3.5230     0.0002    32.0000 </r>
       <r>     3.6421     0.0000    32.0000 </r>
       <r>     3.7612     0.0000    32.0000 </r>
       <r>     3.8803     0.0000    32.0000 </r>
       <r>     3.9994     0.0000    32.0000 </r>
       <r>     4.1185     0.0000    32.0000 </r>
       <r>     4.2376     0.0000    32.0000 </r>
       <r>     4.3567     0.0000    32.0000 </r>
       <r>     4.4758     0.0000    32.0000 </r>
       <r>     4.5949     0.0000    32.0000 </r>
       <r>     4.7140     0.0000    32.0000 </r>
       <r>     4.8331     0.0000    32.0000 </r>
       <r>     4.9522     0.0000    32.0000 </r>
       <r>     5.0713     0.0000    32.0000 </r>
       <r>     5.1904     0.0000    32.0000 </r>
       <r>     5.3095     0.0000    32.0000 </r>
       <r>     5.4286     0.0000    32.0000 </r>
       <r>     5.5477     0.0000    32.0000 </r>
       <r>     5.6668     0.0000    32.0000 </r>
       <r>     5.7859     0.0000    32.0000 </r>
       <r>     5.9049     0.0000    32.0000 </r>
       <r>     6.0240     0.0000    32.0000 </r>
       <r>     6.1431     0.0000    32.0000 </r>
       <r>     6.2622     0.0000    32.0000 </r>
       <r>     6.3813     0.0000    32.0000 </r>
       <r>     6.5004     0.0000    32.0000 </r>
       <r>     6.6195     0.0000    32.0000 </r>
       <r>     6.7386     0.0000    32.0000 </r>
       <r>     6.8577     0.0000    32.0000 </r>
       <r>     6.9768     0.0000    32.0000 </r>
       <r>     7.0959     0.0000    32.0000 </r>
       <r>     7.2150     0.0000    32.0000 </r>
       <r>     7.3341     0.0000    32.0000 </r>
       <r>     7.4532     0.0000    32.0000 </r>
       <r>     7.5723     0.0000    32.0000 </r>
       <r>     7.6914     0.0000    32.0000 </r>
       <r>     7.8105     0.0091    32.0011 </r>
       <r>     7.9296     0.8715    32.1049 </r>
       <r>     8.0487     0.1689    32.1250 </r>
       <r>     8.1678     0.0000    32.1250 </r>
       <r>     8.2869     0.0000    32.1250 </r>
       <r>     8.4060     0.0000    32.1250 </r>
       <r>     8.5251     0.0000    32.1250 </r>
       <r>     8.6442     0.0000    32.1250 </r>
       <r>     8.7633     0.0000    32.1250 </r>
       <r>     8.8824     0.0000    32.1250 </r>
       <r>     9.0015     0.0000    32.1250 </r>
       <r>     9.1206     0.0000    32.1250 </r>
       <r>     9.2397     0.0000    32.1250 </r>
       <r>     9.3588     0.0000    32.1250 </r>
       <r>     9.4779     0.0000    32.1250 </r>
       <r>     9.5970     0.0000    32.1250 </r>
       <r>     9.7161     0.0000    32.1250 </r>
       <r>     9.8352     0.0000    32.1250 </r>
       <r>     9.9543     0.0014    32.1252 </r>
       <r>    10.0734     2.0509    32.3694 </r>
       <r>    10.1925     2.1440    32.6248 </r>
       <r>    10.3116     0.0803    32.6344 </r>
       <r>    10.4307     3.6987    33.0749 </r>
       <r>    10.5498     0.4221    33.1251 </r>
       <r>    10.6689     0.6452    33.2020 </r>
       <r>    10.7880     0.4031    33.2500 </r>
       <r>    10.9071     0.0500    33.2559 </r>
       <r>    11.0262     5.0620    33.8588 </r>
       <r>    11.1453     1.7908    34.0721 </r>
       <r>    11.2644     2.5234    34.3726 </r>
       <r>    11.3835     0.0199    34.3750 </r>
       <r>    11.5026     0.0000    34.3750 </r>
       <r>    11.6217     0.0000    34.3750 </r>
       <r>    11.7408     0.0000    34.3750 </r>
       <r>    11.8599     0.0000    34.3750 </r>
       <r>    11.9790     0.0060    34.3757 </r>
       <r>    12.0981     2.7243    34.7002 </r>
       <r>    12.2172     1.8748    34.9235 </r>
       <r>    12.3363     9.4233    36.0458 </r>
       <r>    12.4554     5.0971    36.6528 </r>
       <r>    12.5745     5.7208    37.3342 </r>
       <r>    12.6936     2.1586    37.5912 </r>
       <r>    12.8127     0.5809    37.6604 </r>
       <r>    12.9318     2.7884    37.9925 </r>
       <r>    13.0509     1.0996    38.1235 </r>
       <r>    13.1700     3.2883    38.5151 </r>
       <r>    13.2891     7.3135    39.3861 </r>
       <r>    13.4082     1.4434    39.5580 </r>
       <r>    13.5273     0.5617    39.6249 </r>
       <r>    13.6464     0.0006    39.6250 </r>
       <r>    13.7655     0.4992    39.6845 </r>
       <r>    13.8846     2.6821    40.0039 </r>
       <r>    14.0037     5.4247    40.6500 </r>
       <r>    14.1228     7.7032    41.5674 </r>
       <r>    14.2419     1.5329    41.7500 </r>
       <r>    14.3610     0.6506    41.8275 </r>
       <r>    14.4801     6.5386    42.6062 </r>
       <r>    14.5992     3.2345    42.9914 </r>
       <r>    14.7183     4.0499    43.4738 </r>
       <r>    14.8374     0.2209    43.5001 </r>
       <r>    14.9565     2.0291    43.7417 </r>
       <r>    15.0756     5.4200    44.3873 </r>
       <r>    15.1947    10.1529    45.5965 </r>
       <r>    15.3138     5.8131    46.2888 </r>
       <r>    15.4329     7.8757    47.2268 </r>
       <r>    15.5520     1.8058    47.4418 </r>
       <r>    15.6711     2.5455    47.7450 </r>
       <r>    15.7901     0.1889    47.7675 </r>
       <r>    15.9092     2.8717    48.1095 </r>
       <r>    16.0283     5.0512    48.7111 </r>
       <r>    16.1474     7.5448    49.6097 </r>
       <r>    16.2665     1.4009    49.7765 </r>
       <r>    16.3856     1.9230    50.0056 </r>
       <r>    16.5047     7.7644    50.9303 </r>
       <r>    16.6238     3.7102    51.3722 </r>
       <r>    16.7429     0.0236    51.3750 </r>
       <r>    16.8620     0.0000    51.3750 </r>
       <r>    16.9811     0.0007    51.3751 </r>
       <r>    17.1002     1.3824    51.5397 </r>
       <r>    17.2193     1.7635    51.7498 </r>
       <r>    17.3384     0.0021    51.7500 </r>
       <r>    17.4575     0.0000    51.7500 </r>
       <r>    17.5766     0.0000    51.7500 </r>
       <r>    17.6957     0.0000    51.7500 </r>
       <r>    17.8148     0.0000    51.7500 </r>
       <r>    17.9339     0.0000    51.7500 </r>
       <r>    18.0530     0.0000    51.7500 </r>
       <r>    18.1721     0.0000    51.7500 </r>
       <r>    18.2912     0.0000    51.7500 </r>
       <r>    18.4103     0.0000    51.7500 </r>
       <r>    18.5294     0.0000    51.7500 </r>
       <r>    18.6485     0.2835    51.7838 </r>
       <r>    18.7676     1.7909    51.9971 </r>
       <r>    18.8867     0.0247    52.0000 </r>
       <r>    19.0058     0.0000    52.0000 </r>
       <r>    19.1249     0.0000    52.0000 </r>
       <r>    19.2440     0.0000    52.0000 </r>
       <r>    19.3631     0.0000    52.0000 </r>
       <r>    19.4822     0.0000    52.0000 </r>
       <r>    19.6013     0.0000    52.0000 </r>
       <r>    19.7204     0.0000    52.0000 </r>
       <r>    19.8395     0.0000    52.0000 </r>
       <r>    19.9586     0.0000    52.0000 </r>
       <r>    20.0777     0.0000    52.0000 </r>
       <r>    20.1968     0.0000    52.0000 </r>
       <r>    20.3159     0.0000    52.0000 </r>
      </set>
      <set comment="spin 2">
       <r>   -15.4137     0.0000     0.0000 </r>
       <r>   -15.2946     0.0000     0.0000 </r>
       <r>   -15.1755     0.0000     0.0000 </r>
       <r>   -15.0564     0.0000     0.0000 </r>
       <r>   -14.9373     0.0000     0.0000 </r>
       <r>   -14.8182     0.0000     0.0000 </r>
       <r>   -14.6991     0.0000     0.0000 </r>
       <r>   -14.5800     0.0000     0.0000 </r>
       <r>   -14.4609     0.0000     0.0000 </r>
       <r>   -14.3418     0.0000     0.0000 </r>
       <r>   -14.2227     0.0000     0.0000 </r>
       <r>   -14.1037     0.0000     0.0000 </r>
       <r>   -13.9846     0.0000     0.0000 </r>
       <r>   -13.8655     0.0168     0.0020 </r>
       <r>   -13.7464     0.9170     0.1112 </r>
       <r>   -13.6273     0.1158     0.1250 </r>
       <r>   -13.5082     0.0000     0.1250 </r>
       <r>   -13.3891     0.0040     0.1255 </r>
       <r>   -13.2700     2.6457     0.4406 </r>
       <r>   -13.1509     5.7093     1.1206 </r>
       <r>   -13.0318     6.0302     1.8387 </r>
       <r>   -12.9127     0.3044     1.8750 </r>
       <r>   -12.7936     0.0008     1.8751 </r>
       <r>   -12.6745     3.7414     2.3207 </r>
       <r>   -12.5554    13.4080     3.9176 </r>
       <r>   -12.4363    21.1552     6.4371 </r>
       <r>   -12.3172     8.4711     7.4460 </r>
       <r>   -12.1981     4.6430     7.9990 </r>
       <r>   -12.0790     0.0084     8.0000 </r>
       <r>   -11.9599     0.0000     8.0000 </r>
       <r>   -11.8408     0.0000     8.0000 </r>
       <r>   -11.7217     0.0000     8.0000 </r>
       <r>   -11.6026     0.0000     8.0000 </r>
       <r>   -11.4835     0.0000     8.0000 </r>
       <r>   -11.3644     0.0000     8.0000 </r>
       <r>   -11.2453     0.0000     8.0000 </r>
       <r>   -11.1262     0.0000     8.0000 </r>
       <r>   -11.0071     0.0000     8.0000 </r>
       <r>   -10.8880     0.0000     8.0000 </r>
       <r>   -10.7689     0.0000     8.0000 </r>
       <r>   -10.6498     0.0000     8.0000 </r>
       <r>   -10.5307     0.0000     8.0000 </r>
       <r>   -10.4116     0.0000     8.0000 </r>
       <r>   -10.2925     0.0000     8.0000 </r>
       <r>   -10.1734     0.0000     8.0000 </r>
       <r>   -10.0543     0.0000     8.0000 </r>
       <r>    -9.9352     0.0000     8.0000 </r>
       <r>    -9.8161     0.0000     8.0000 </r>
       <r>    -9.6970     0.0000     8.0000 </r>
       <r>    -9.5779     0.0000     8.0000 </r>
       <r>    -9.4588     0.0000     8.0000 </r>
       <r>    -9.3397     0.0000     8.0000 </r>
       <r>    -9.2206     0.0000     8.0000 </r>
       <r>    -9.1015     0.0000     8.0000 </r>
       <r>    -8.9824     0.0000     8.0000 </r>
       <r>    -8.8633     0.0000     8.0000 </r>
       <r>    -8.7442     0.0000     8.0000 </r>
       <r>    -8.6251     0.0000     8.0000 </r>
       <r>    -8.5060     0.0000     8.0000 </r>
       <r>    -8.3869     0.0000     8.0000 </r>
       <r>    -8.2678     0.0000     8.0000 </r>
       <r>    -8.1487     0.0000     8.0000 </r>
       <r>    -8.0296     0.0000     8.0000 </r>
       <r>    -7.9105     0.0000     8.0000 </r>
       <r>    -7.7914     0.0000     8.0000 </r>
       <r>    -7.6723     0.0000     8.0000 </r>
       <r>    -7.5532     0.0000     8.0000 </r>
       <r>    -7.4341     0.0000     8.0000 </r>
       <r>    -7.3150     0.0000     8.0000 </r>
       <r>    -7.1959     0.0000     8.0000 </r>
       <r>    -7.0768     0.0000     8.0000 </r>
       <r>    -6.9577     0.0000     8.0000 </r>
       <r>    -6.8386     0.0000     8.0000 </r>
       <r>    -6.7195     0.0000     8.0000 </r>
       <r>    -6.6004     0.0000     8.0000 </r>
       <r>    -6.4813     0.0000     8.0000 </r>
       <r>    -6.3622     0.0000     8.0000 </r>
       <r>    -6.2431     0.0000     8.0000 </r>
       <r>    -6.1240     0.0000     8.0000 </r>
       <r>    -6.0049     0.0000     8.0000 </r>
       <r>    -5.8858     0.0000     8.0000 </r>
       <r>    -5.7667     0.0000     8.0000 </r>
       <r>    -5.6476     0.0000     8.0000 </r>
       <r>    -5.5285     0.0000     8.0000 </r>
       <r>    -5.4094     0.0000     8.0000 </r>
       <r>    -5.2903     0.0000     8.0000 </r>
       <r>    -5.1712     0.0000     8.0000 </r>
       <r>    -5.0521     0.0000     8.0000 </r>
       <r>    -4.9330     0.0000     8.0000 </r>
       <r>    -4.8139     0.0000     8.0000 </r>
       <r>    -4.6948     0.0000     8.0000 </r>
       <r>    -4.5757     0.0000     8.0000 </r>
       <r>    -4.4566     0.0000     8.0000 </r>
       <r>    -4.3375     0.0000     8.0000 </r>
       <r>    -4.2184     0.0000     8.0000 </r>
       <r>    -4.0994     0.0000     8.0000 </r>
       <r>    -3.9803     0.0000     8.0000 </r>
       <r>    -3.8612     0.0000     8.0000 </r>
       <r>    -3.7421     0.0000     8.0000 </r>
       <r>    -3.6230     0.0000     8.0000 </r>
       <r>    -3.5039     0.0000     8.0000 </r>
       <r>    -3.3848     0.0000     8.0000 </r>
       <r>    -3.2657     0.0000     8.0000 </r>
       <r>    -3.1466     0.0000     8.0000 </r>
       <r>    -3.0275     0.0000     8.0000 </r>
       <r>    -2.9084     0.0000     8.0000 </r>
       <r>    -2.7893     0.0000     8.0000 </r>
       <r>    -2.6702     0.0000     8.0000 </r>
       <r>    -2.5511     0.0000     8.0000 </r>
       <r>    -2.4320     0.0000     8.0000 </r>
       <r>    -2.3129     0.0000     8.0000 </r>
       <r>    -2.1938     0.0000     8.0000 </r>
       <r>    -2.0747     0.0000     8.0000 </r>
       <r>    -1.9556     0.0000     8.0000 </r>
       <r>    -1.8365     0.0000     8.0000 </r>
       <r>    -1.7174     0.0000     8.0000 </r>
       <r>    -1.5983     0.0000     8.0000 </r>
       <r>    -1.4792     0.0000     8.0000 </r>
       <r>    -1.3601     0.2340     8.0279 </r>
       <r>    -1.2410     0.8107     8.1244 </r>
       <r>    -1.1219     0.0247     8.1274 </r>
       <r>    -1.0028     2.5275     8.4284 </r>
       <r>    -0.8837     0.6039     8.5003 </r>
       <r>    -0.7646     0.7452     8.5891 </r>
       <r>    -0.6455     0.3240     8.6277 </r>
       <r>    -0.5264     4.5543     9.1701 </r>
       <r>    -0.4073     5.7286     9.8523 </r>
       <r>    -0.2882     4.0980    10.3404 </r>
       <r>    -0.1691    14.5760    12.0764 </r>
       <r>    -0.0500     4.5993    12.6242 </r>
       <r>     0.0691     3.7624    13.0723 </r>
       <r>     0.1882     2.6225    13.3846 </r>
       <r>     0.3073     2.8412    13.7230 </r>
       <r>     0.4264     2.7165    14.0465 </r>
       <r>     0.5455     0.7435    14.1351 </r>
       <r>     0.6646     6.1563    14.8683 </r>
       <r>     0.7837     9.0478    15.9459 </r>
       <r>     0.9028     5.5972    16.6125 </r>
       <r>     1.0219     0.1051    16.6250 </r>
       <r>     1.1410     0.0000    16.6250 </r>
       <r>     1.2601     0.6362    16.7008 </r>
       <r>     1.3792     8.3263    17.6924 </r>
       <r>     1.4983    12.4618    19.1766 </r>
       <r>     1.6174    20.1394    21.5752 </r>
       <r>     1.7365     2.5285    21.8763 </r>
       <r>     1.8556     2.3566    22.1570 </r>
       <r>     1.9747     0.7808    22.2500 </r>
       <r>     2.0938     0.0171    22.2520 </r>
       <r>     2.2129     7.6814    23.1669 </r>
       <r>     2.3320    12.0020    24.5963 </r>
       <r>     2.4511     4.9164    25.1818 </r>
       <r>     2.5702    13.5922    26.8007 </r>
       <r>     2.6893     6.9689    27.6306 </r>
[...]
        <r>  0.0045  0.0001  0.0004  0.0015  0.0002  0.0001  0.0001  0.0003  0.0001 </r>
        <r>  0.0017  0.0008  0.0000  0.0039  0.0001  0.0000  0.0001  0.0004  0.0001 </r>
        <r>  0.0000  0.0019  0.0009  0.0003  0.0031  0.0009  0.0001  0.0081  0.0002 </r>
        <r>  0.0000  0.0132  0.0064  0.0021  0.0000  0.0000  0.0000  0.0000  0.0000 </r>
        <r>  0.0014  0.0003  0.0011  0.0313  0.0000  0.0000  0.0000  0.0000  0.0000 </r>
        <r>  0.0030  0.0027  0.0096  0.0205  0.0000  0.0000  0.0000  0.0000  0.0000 </r>
        <r>  0.0000  0.0000  0.0088  0.0020  0.0000  0.0000  0.0000  0.0000  0.0000 </r>
        <r>  0.0005  0.0055  0.0272  0.0004  0.0000  0.0000  0.0000  0.0000  0.0000 </r>
        <r>  0.0003  0.0130  0.0157  0.0201  0.0000  0.0000  0.0000  0.0000  0.0000 </r>
        <r>  0.0002  0.0022  0.0061  0.0156  0.0000  0.0000  0.0000  0.0000  0.0000 </r>
        <r>  0.0000  0.0153  0.0064  0.0017  0.0000  0.0000  0.0000  0.0000  0.0000 </r>
       </set>
       <set comment="band 42">
        <r>  0.0000  0.0003  0.0062  0.0089  0.0068  0.0095  0.0081  0.0004  0.0054 </r>
        <r>  0.0000  0.0001  0.0035  0.0049  0.0000  0.0000  0.0011  0.0000  0.0007 </r>
        <r>  0.0335  0.0001  0.0029  0.0060  0.0028  0.0123  0.0001  0.0000  0.0002 </r>
        <r>  0.0016  0.0001  0.0018  0.0038  0.0067  0.0103  0.0005  0.0001  0.0001 </r>
        <r>  0.0033  0.0025  0.0001  0.0001  0.0003  0.0003  0.0001  0.0001  0.0000 </r>
        <r>  0.0508  0.0012  0.0050  0.0045  0.0097  0.0037  0.0000  0.0011  0.0003 </r>
        <r>  0.0002  0.0000  0.0039  0.0028  0.0002  0.0002  0.0001  0.0000  0.0001 </r>
        <r>  0.0025  0.0038  0.0001  0.0002  0.0002  0.0003  0.0001  0.0000  0.0001 </r>
        <r>  0.0000  0.0000  0.0011  0.0016  0.0051  0.0072  0.0002  0.0003  0.0001 </r>
        <r>  0.0000  0.0003  0.0084  0.0142  0.0000  0.0000  0.0000  0.0000  0.0000 </r>
        <r>  0.0018  0.0305  0.0018  0.0003  0.0000  0.0000  0.0000  0.0000  0.0000 </r>
        <r>  0.0001  0.0001  0.0200  0.0102  0.0000  0.0000  0.0000  0.0000  0.0000 </r>
        <r>  0.0002  0.0204  0.0115  0.0125  0.0000  0.0000  0.0000  0.0000  0.0000 </r>
        <r>  0.0028  0.0257  0.0058  0.0028  0.0000  0.0000  0.0000  0.0000  0.0000 </r>
        <r>  0.0000  0.0002  0.0056  0.0009  0.0000  0.0000  0.0000  0.0000  0.0000 </r>
        <r>  0.0001  0.0191  0.0077  0.0051  0.0000  0.0000  0.0000  0.0000  0.0000 </r>
        <r>  0.0000  0.0004  0.0086  0.0127  0.0000  0.0000  0.0000  0.0000  0.0000 </r>
       </set>
       <set comment="band 43">
        <r>  0.0013  0.0002  0.0003  0.0003  0.0078  0.0078  0.0000  0.0078  0.0000 </r>
        <r>  0.0532  0.0056  0.0054  0.0053  0.0002  0.0002  0.0000  0.0002  0.0000 </r>
        <r>  0.0014  0.0015  0.0016  0.0015  0.0006  0.0000  0.0011  0.0001  0.0000 </r>
        <r>  0.0013  0.0016  0.0016  0.0016  0.0000  0.0000  0.0003  0.0006  0.0008 </r>
        <r>  0.0050  0.0032  0.0035  0.0123  0.0006  0.0017  0.0000  0.0006  0.0000 </r>
        <r>  0.0016  0.0015  0.0015  0.0016  0.0000  0.0006  0.0003  0.0001  0.0008 </r>
        <r>  0.0058  0.0127  0.0031  0.0031  0.0006  0.0006  0.0000  0.0016  0.0000 </r>
        <r>  0.0053  0.0032  0.0126  0.0033  0.0017  0.0006  0.0000  0.0005  0.0000 </r>
        <r>  0.0348  0.0000  0.0000  0.0000  0.0006  0.0007  0.0000  0.0005  0.0000 </r>
        <r>  0.0143  0.0169  0.0158  0.0146  0.0000  0.0000  0.0000  0.0000  0.0000 </r>
        <r>  0.0033  0.0045  0.0536  0.0043  0.0000  0.0000  0.0000  0.0000  0.0000 </r>
        <r>  0.0033  0.0530  0.0047  0.0044  0.0000  0.0000  0.0000  0.0000  0.0000 </r>
        <r>  0.0016  0.0050  0.0043  0.0011  0.0000  0.0000  0.0000  0.0000  0.0000 </r>
        <r>  0.0034  0.0044  0.0043  0.0537  0.0000  0.0000  0.0000  0.0000  0.0000 </r>
        <r>  0.0017  0.0011  0.0055  0.0048  0.0000  0.0000  0.0000  0.0000  0.0000 </r>
        <r>  0.0016  0.0053  0.0012  0.0043  0.0000  0.0000  0.0000  0.0000  0.0000 </r>
        <r>  0.0085  0.0000  0.0000  0.0001  0.0000  0.0000  0.0000  0.0000  0.0000 </r>
       </set>
       <set comment="band 44">
        <r>  0.0602  0.0052  0.0056  0.0059  0.0050  0.0053  0.0000  0.0049  0.0000 </r>
        <r>  0.0035  0.0000  0.0000  0.0001  0.0027  0.0029  0.0000  0.0026  0.0000 </r>
        <r>  0.0060  0.0000  0.0051  0.0001  0.0043  0.0107  0.0008  0.0096  0.0000 </r>
        <r>  0.0067  0.0048  0.0001  0.0001  0.0102  0.0105  0.0002  0.0041  0.0005 </r>
        <r>  0.0027  0.0002  0.0002  0.0044  0.0028  0.0001  0.0001  0.0029  0.0003 </r>
        <r>  0.0049  0.0000  0.0000  0.0053  0.0100  0.0045  0.0002  0.0098  0.0007 </r>
        <r>  0.0019  0.0046  0.0002  0.0002  0.0030  0.0029  0.0001  0.0001  0.0003 </r>
        <r>  0.0024  0.0002  0.0045  0.0002  0.0001  0.0028  0.0004  0.0031  0.0000 </r>
        <r>  0.0490  0.0002  0.0002  0.0002  0.0005  0.0006  0.0000  0.0004  0.0000 </r>
        <r>  0.0013  0.0352  0.0358  0.0360  0.0000  0.0000  0.0000  0.0000  0.0000 </r>
        <r>  0.0003  0.0003  0.0133  0.0009  0.0000  0.0000  0.0000  0.0000  0.0000 </r>
        <r>  0.0004  0.0135  0.0003  0.0007  0.0000  0.0000  0.0000  0.0000  0.0000 </r>
        <r>  0.0040  0.0026  0.0023  0.0058  0.0000  0.0000  0.0000  0.0000  0.0000 </r>
        <r>  0.0003  0.0005  0.0009  0.0132  0.0000  0.0000  0.0000  0.0000  0.0000 </r>
        <r>  0.0044  0.0065  0.0023  0.0021  0.0000  0.0000  0.0000  0.0000  0.0000 </r>
        <r>  0.0042  0.0023  0.0062  0.0022  0.0000  0.0000  0.0000  0.0000  0.0000 </r>
        <r>  0.0034  0.0002  0.0001  0.0000  0.0000  0.0000  0.0000  0.0000  0.0000 </r>
       </set>
       <set comment="band 45">
        <r>  0.0000  0.0000  0.0000  0.0000  0.0001  0.0001  0.0055  0.0000  0.0030 </r>
        <r>  0.0000  0.0000  0.0002  0.0004  0.0101  0.0137  0.0001  0.0003  0.0001 </r>
        <r>  0.0001  0.0000  0.0031  0.0037  0.0000  0.0000  0.0020  0.0001  0.0002 </r>
        <r>  0.0000  0.0001  0.0017  0.0028  0.0001  0.0001  0.0002  0.0000  0.0002 </r>
        <r>  0.0430  0.0000  0.0000  0.0000  0.0020  0.0043  0.0000  0.0009  0.0001 </r>
        <r>  0.0001  0.0005  0.0036  0.0037  0.0000  0.0000  0.0010  0.0002  0.0017 </r>
        <r>  0.0008  0.0000  0.0000  0.0000  0.0091  0.0095  0.0004  0.0001  0.0001 </r>
        <r>  0.0314  0.0000  0.0000  0.0001  0.0032  0.0041  0.0000  0.0028  0.0002 </r>
        <r>  0.0000  0.0000  0.0009  0.0010  0.0000  0.0000  0.0000  0.0000  0.0000 </r>
        <r>  0.0000  0.0007  0.0302  0.0385  0.0000  0.0000  0.0000  0.0000  0.0000 </r>
        <r>  0.0023  0.0205  0.0012  0.0037  0.0000  0.0000  0.0000  0.0000  0.0000 </r>
        <r>  0.0000  0.0000  0.0311  0.0244  0.0000  0.0000  0.0000  0.0000  0.0000 </r>
        <r>  0.0029  0.0172  0.0001  0.0008  0.0000  0.0000  0.0000  0.0000  0.0000 </r>
        <r>  0.0031  0.0124  0.0004  0.0010  0.0000  0.0000  0.0000  0.0000  0.0000 </r>
        <r>  0.0000  0.0000  0.0348  0.0286  0.0000  0.0000  0.0000  0.0000  0.0000 </r>
        <r>  0.0022  0.0254  0.0006  0.0031  0.0000  0.0000  0.0000  0.0000  0.0000 </r>
        <r>  0.0000  0.0004  0.0193  0.0261  0.0000  0.0000  0.0000  0.0000  0.0000 </r>
       </set>
       <set comment="band 46">
        <r>  0.0001  0.0000  0.0000  0.0000  0.0001  0.0000  0.0031  0.0001  0.0056 </r>
        <r>  0.0000  0.0004  0.0002  0.0000  0.0059  0.0023  0.0001  0.0162  0.0001 </r>
        <r>  0.0001  0.0042  0.0014  0.0001  0.0000  0.0003  0.0011  0.0000  0.0003 </r>
        <r>  0.0004  0.0044  0.0021  0.0013  0.0000  0.0001  0.0009  0.0001  0.0019 </r>
        <r>  0.0080  0.0001  0.0000  0.0000  0.0072  0.0006  0.0004  0.0089  0.0001 </r>
        <r>  0.0000  0.0034  0.0005  0.0007  0.0002  0.0000  0.0000  0.0000  0.0009 </r>
        <r>  0.0488  0.0000  0.0001  0.0000  0.0003  0.0000  0.0000  0.0053  0.0000 </r>
        <r>  0.0195  0.0001  0.0000  0.0000  0.0018  0.0050  0.0000  0.0071  0.0003 </r>
        <r>  0.0000  0.0011  0.0003  0.0002  0.0000  0.0000  0.0000  0.0001  0.0000 </r>
        <r>  0.0000  0.0480  0.0170  0.0068  0.0000  0.0000  0.0000  0.0000  0.0000 </r>
        <r>  0.0014  0.0105  0.0002  0.0254  0.0000  0.0000  0.0000  0.0000  0.0000 </r>
        <r>  0.0036  0.0017  0.0012  0.0052  0.0000  0.0000  0.0000  0.0000  0.0000 </r>
        <r>  0.0006  0.0207  0.0369  0.0001  0.0000  0.0000  0.0000  0.0000  0.0000 </r>
        <r>  0.0006  0.0184  0.0272  0.0001  0.0000  0.0000  0.0000  0.0000  0.0000 </r>
        <r>  0.0030  0.0011  0.0021  0.0084  0.0000  0.0000  0.0000  0.0000  0.0000 </r>
        <r>  0.0011  0.0110  0.0003  0.0341  0.0000  0.0000  0.0000  0.0000  0.0000 </r>
        <r>  0.0000  0.0274  0.0107  0.0050  0.0000  0.0000  0.0000  0.0000  0.0000 </r>
       </set>
       <set comment="band 47">
        <r>  0.0017  0.0084  0.0082  0.0081  0.0008  0.0007  0.0000  0.0009  0.0000 </r>
        <r>  0.0034  0.0018  0.0017  0.0016  0.0017  0.0017  0.0000  0.0014  0.0000 </r>
        <r>  0.0006  0.0052  0.0004  0.0055  0.0003  0.0002  0.0025  0.0003  0.0000 </r>
        <r>  0.0004  0.0003  0.0053  0.0054  0.0002  0.0002  0.0007  0.0003  0.0020 </r>
        <r>  0.0020  0.0004  0.0003  0.0046  0.0069  0.0093  0.0000  0.0064  0.0001 </r>
        <r>  0.0007  0.0055  0.0053  0.0005  0.0002  0.0004  0.0006  0.0002  0.0019 </r>
        <r>  0.0033  0.0051  0.0004  0.0003  0.0066  0.0065  0.0000  0.0089  0.0001 </r>
        <r>  0.0021  0.0004  0.0048  0.0004  0.0093  0.0068  0.0001  0.0062  0.0000 </r>
        <r>  0.0010  0.0060  0.0062  0.0064  0.0000  0.0001  0.0000  0.0000  0.0000 </r>
        <r>  0.0000  0.0007  0.0011  0.0013  0.0000  0.0000  0.0000  0.0000  0.0000 </r>
        <r>  0.0000  0.0041  0.0058  0.0050  0.0000  0.0000  0.0000  0.0000  0.0000 </r>
        <r>  0.0001  0.0056  0.0043  0.0044  0.0000  0.0000  0.0000  0.0000  0.0000 </r>
        <r>  0.0000  0.0081  0.0094  0.0324  0.0000  0.0000  0.0000  0.0000  0.0000 </r>
        <r>  0.0000  0.0038  0.0047  0.0062  0.0000  0.0000  0.0000  0.0000  0.0000 </r>
        <r>  0.0000  0.0325  0.0075  0.0079  0.0000  0.0000  0.0000  0.0000  0.0000 </r>
        <r>  0.0000  0.0078  0.0322  0.0094  0.0000  0.0000  0.0000  0.0000  0.0000 </r>
        <r>  0.0063  0.0070  0.0059  0.0058  0.0000  0.0000  0.0000  0.0000  0.0000 </r>
       </set>
       <set comment="band 48">
        <r>  0.0001  0.0075  0.0024  0.0009  0.0047  0.0020  0.0012  0.0095  0.0022 </r>
        <r>  0.0004  0.0176  0.0066  0.0021  0.0005  0.0002  0.0022  0.0013  0.0035 </r>
        <r>  0.0054  0.0014  0.0010  0.0006  0.0006  0.0102  0.0001  0.0023  0.0013 </r>
        <r>  0.0118  0.0045  0.0039  0.0036  0.0000  0.0012  0.0000  0.0063  0.0001 </r>
        <r>  0.0003  0.0151  0.0074  0.0023  0.0001  0.0000  0.0000  0.0005  0.0001 </r>
        <r>  0.0023  0.0006  0.0001  0.0002  0.0119  0.0001  0.0016  0.0048  0.0003 </r>
        <r>  0.0031  0.0185  0.0096  0.0047  0.0001  0.0000  0.0001  0.0003  0.0002 </r>
        <r>  0.0008  0.0158  0.0070  0.0026  0.0000  0.0000  0.0001  0.0005  0.0001 </r>
        <r>  0.0008  0.0007  0.0005  0.0004  0.0020  0.0005  0.0003  0.0110  0.0005 </r>
        <r>  0.0000  0.0091  0.0037  0.0014  0.0000  0.0000  0.0000  0.0000  0.0000 </r>
        <r>  0.0017  0.0057  0.0014  0.0038  0.0000  0.0000  0.0000  0.0000  0.0000 </r>
        <r>  0.0044  0.0092  0.0014  0.0000  0.0000  0.0000  0.0000  0.0000  0.0000 </r>
        <r>  0.0003  0.0138  0.0098  0.0013  0.0000  0.0000  0.0000  0.0000  0.0000 </r>
        <r>  0.0006  0.0072  0.0067  0.0002  0.0000  0.0000  0.0000  0.0000  0.0000 </r>
        <r>  0.0024  0.0228  0.0071  0.0025  0.0000  0.0000  0.0000  0.0000  0.0000 </r>
        <r>  0.0010  0.0126  0.0047  0.0049  0.0000  0.0000  0.0000  0.0000  0.0000 </r>
        <r>  0.0000  0.0248  0.0079  0.0022  0.0000  0.0000  0.0000  0.0000  0.0000 </r>
       </set>
       <set comment="band 49">
        <r>  0.0000  0.0002  0.0051  0.0059  0.0063  0.0103  0.0023  0.0001  0.0014 </r>
        <r>  0.0003  0.0004  0.0114  0.0148  0.0007  0.0009  0.0035  0.0000  0.0020 </r>
        <r>  0.0075  0.0019  0.0029  0.0031  0.0041  0.0018  0.0000  0.0056  0.0009 </r>
        <r>  0.0001  0.0002  0.0000  0.0004  0.0082  0.0096  0.0017  0.0004  0.0006 </r>
        <r>  0.0019  0.0003  0.0114  0.0151  0.0003  0.0001  0.0001  0.0000  0.0002 </r>
        <r>  0.0116  0.0024  0.0028  0.0027  0.0000  0.0020  0.0001  0.0052  0.0004 </r>
        <r>  0.0001  0.0004  0.0089  0.0167  0.0003  0.0002  0.0001  0.0000  0.0001 </r>
        <r>  0.0020  0.0000  0.0117  0.0187  0.0001  0.0003  0.0002  0.0000  0.0001 </r>
        <r>  0.0005  0.0000  0.0005  0.0012  0.0073  0.0057  0.0005  0.0005  0.0003 </r>
        <r>  0.0000  0.0002  0.0062  0.0087  0.0000  0.0000  0.0000  0.0000  0.0000 </r>
        <r>  0.0030  0.0011  0.0058  0.0052  0.0000  0.0000  0.0000  0.0000  0.0000 </r>
        <r>  0.0001  0.0006  0.0061  0.0088  0.0000  0.0000  0.0000  0.0000  0.0000 </r>
        <r>  0.0022  0.0000  0.0071  0.0132  0.0000  0.0000  0.0000  0.0000  0.0000 </r>
        <r>  0.0040  0.0004  0.0022  0.0042  0.0000  0.0000  0.0000  0.0000  0.0000 </r>
        <r>  0.0001  0.0010  0.0104  0.0181  0.0000  0.0000  0.0000  0.0000  0.0000 </r>
        <r>  0.0016  0.0004  0.0152  0.0163  0.0000  0.0000  0.0000  0.0000  0.0000 </r>
        <r>  0.0000  0.0007  0.0159  0.0177  0.0000  0.0000  0.0000  0.0000  0.0000 </r>
       </set>
       <set comment="band 50">
        <r>  0.0027  0.0002  0.0006  0.0013  0.0011  0.0003  0.0000  0.0021  0.0000 </r>
        <r>  0.0173  0.0000  0.0005  0.0020  0.0000  0.0000  0.0000  0.0001  0.0002 </r>
        <r>  0.0015  0.0006  0.0029  0.0009  0.0140  0.0031  0.0004  0.0081  0.0000 </r>
        <r>  0.0028  0.0017  0.0005  0.0004  0.0072  0.0044  0.0002  0.0121  0.0003 </r>
        <r>  0.0008  0.0067  0.0044  0.0014  0.0003  0.0004  0.0000  0.0002  0.0000 </r>
        <r>  0.0004  0.0012  0.0013  0.0041  0.0035  0.0165  0.0000  0.0060  0.0003 </r>
        <r>  0.0008  0.0000  0.0034  0.0016  0.0002  0.0003  0.0000  0.0002  0.0000 </r>
        <r>  0.0006  0.0064  0.0003  0.0017  0.0003  0.0003  0.0000  0.0002  0.0000 </r>
        <r>  0.0400  0.0016  0.0016  0.0012  0.0086  0.0117  0.0000  0.0062  0.0000 </r>
        <r>  0.0001  0.0000  0.0001  0.0007  0.0000  0.0000  0.0000  0.0000  0.0000 </r>
        <r>  0.0000  0.0027  0.0144  0.0003  0.0000  0.0000  0.0000  0.0000  0.0000 </r>
        <r>  0.0001  0.0111  0.0015  0.0005  0.0000  0.0000  0.0000  0.0000  0.0000 </r>
        <r>  0.0000  0.0108  0.0069  0.0194  0.0000  0.0000  0.0000  0.0000  0.0000 </r>
        <r>  0.0002  0.0022  0.0008  0.0177  0.0000  0.0000  0.0000  0.0000  0.0000 </r>
        <r>  0.0001  0.0105  0.0091  0.0053  0.0000  0.0000  0.0000  0.0000  0.0000 </r>
        <r>  0.0000  0.0116  0.0140  0.0044  0.0000  0.0000  0.0000  0.0000  0.0000 </r>
        <r>  0.0001  0.0015  0.0038  0.0073  0.0000  0.0000  0.0000  0.0000  0.0000 </r>
       </set>
       <set comment="band 51">
        <r>  0.0000  0.0000  0.0000  0.0000  0.0001  0.0002  0.0138  0.0000  0.0112 </r>
        <r>  0.0000  0.0000  0.0001  0.0002  0.0012  0.0022  0.0003  0.0001  0.0003 </r>
        <r>  0.0004  0.0001  0.0162  0.0204  0.0000  0.0001  0.0007  0.0004  0.0011 </r>
        <r>  0.0000  0.0013  0.0092  0.0173  0.0005  0.0005  0.0018  0.0000  0.0010 </r>
        <r>  0.1374  0.0003  0.0002  0.0013  0.0002  0.0000  0.0000  0.0005  0.0000 </r>
        <r>  0.0003  0.0027  0.0150  0.0271  0.0000  0.0000  0.0010  0.0001  0.0006 </r>
        <r>  0.0075  0.0000  0.0000  0.0000  0.0003  0.0000  0.0001  0.0000  0.0000 </r>
        <r>  0.0857  0.0002  0.0006  0.0002  0.0000  0.0001  0.0000  0.0006  0.0000 </r>
        <r>  0.0001  0.0001  0.0028  0.0053  0.0003  0.0004  0.0000  0.0000  0.0000 </r>
        <r>  0.0000  0.0000  0.0001  0.0001  0.0000  0.0000  0.0000  0.0000  0.0000 </r>
        <r>  0.0001  0.0029  0.0078  0.0113  0.0000  0.0000  0.0000  0.0000  0.0000 </r>
        <r>  0.0000  0.0007  0.0002  0.0036  0.0000  0.0000  0.0000  0.0000  0.0000 </r>
        <r>  0.0003  0.0112  0.0099  0.0074  0.0000  0.0000  0.0000  0.0000  0.0000 </r>
        <r>  0.0002  0.0088  0.0139  0.0125  0.0000  0.0000  0.0000  0.0000  0.0000 </r>
        <r>  0.0000  0.0001  0.0012  0.0000  0.0000  0.0000  0.0000  0.0000  0.0000 </r>
        <r>  0.0002  0.0079  0.0035  0.0042  0.0000  0.0000  0.0000  0.0000  0.0000 </r>
        <r>  0.0000  0.0000  0.0006  0.0015  0.0000  0.0000  0.0000  0.0000  0.0000 </r>
       </set>
       <set comment="band 52">
        <r>  0.0000  0.0000  0.0000  0.0000  0.0002  0.0001  0.0116  0.0002  0.0141 </r>
        <r>  0.0001  0.0002  0.0001  0.0000  0.0010  0.0002  0.0003  0.0026  0.0003 </r>
        <r>  0.0004  0.0217  0.0129  0.0007  0.0000  0.0005  0.0006  0.0001  0.0016 </r>
        <r>  0.0006  0.0307  0.0127  0.0040  0.0000  0.0001  0.0008  0.0000  0.0007 </r>
        <r>  0.0153  0.0000  0.0000  0.0001  0.0004  0.0000  0.0001  0.0000  0.0000 </r>
        <r>  0.0002  0.0189  0.0067  0.0025  0.0007  0.0000  0.0013  0.0002  0.0012 </r>
        <r>  0.1405  0.0012  0.0003  0.0003  0.0003  0.0004  0.0000  0.0000  0.0000 </r>
        <r>  0.0715  0.0001  0.0004  0.0002  0.0000  0.0007  0.0000  0.0000  0.0001 </r>
        <r>  0.0000  0.0058  0.0021  0.0004  0.0002  0.0000  0.0000  0.0005  0.0000 </r>
        <r>  0.0000  0.0003  0.0001  0.0000  0.0000  0.0000  0.0000  0.0000  0.0000 </r>
        <r>  0.0001  0.0100  0.0061  0.0019  0.0000  0.0000  0.0000  0.0000  0.0000 </r>
        <r>  0.0001  0.0141  0.0141  0.0108  0.0000  0.0000  0.0000  0.0000  0.0000 </r>
        <r>  0.0000  0.0004  0.0020  0.0007  0.0000  0.0000  0.0000  0.0000  0.0000 </r>
        <r>  0.0000  0.0045  0.0000  0.0011  0.0000  0.0000  0.0000  0.0000  0.0000 </r>
        <r>  0.0003  0.0074  0.0096  0.0115  0.0000  0.0000  0.0000  0.0000  0.0000 </r>
        <r>  0.0002  0.0038  0.0032  0.0062  0.0000  0.0000  0.0000  0.0000  0.0000 </r>
        <r>  0.0000  0.0021  0.0003  0.0000  0.0000  0.0000  0.0000  0.0000  0.0000 </r>
       </set>
      </set>
     </set>
    </set>
   </array>
  </projected>
 </calculation>
 <structure name="finalpos" >
  <crystal>
   <varray name="basis" >
    <v>       0.00000000       4.24689300       4.24689300 </v>
    <v>       4.24689300       0.00000000       4.24689300 </v>
    <v>       4.24689300       4.24689300       0.00000000 </v>
   </varray>
   <i name="volume">    153.19477498 </i>
   <varray name="rec_basis" >
    <v>      -0.11773313       0.11773313       0.11773313 </v>
    <v>       0.11773313      -0.11773313       0.11773313 </v>
    <v>       0.11773313       0.11773313      -0.11773313 </v>
   </varray>
  </crystal>
  <varray name="positions" >
   <v>       0.12182448       0.12694107       0.12341773 </v>
   <v>       0.97727882       0.98394460       0.97877713 </v>
   <v>       0.97670564       0.98351994       0.55537341 </v>
   <v>       0.97991568       0.55897610       0.97795845 </v>
   <v>       0.99621213       0.50228829       0.49887864 </v>
   <v>       0.55425543       0.98039115       0.97987402 </v>
   <v>       0.49645100       0.00139093       0.49809891 </v>
   <v>       0.49712839       0.50233257       0.99765308 </v>
   <v>       0.49810120       0.50141252       0.49845598 </v>
   <v>       0.24613365       0.25387741       0.24883458 </v>
   <v>       0.24700754       0.25206063       0.74702706 </v>
   <v>       0.24836314       0.75090250       0.24838714 </v>
   <v>       0.24842828       0.75272302       0.74669812 </v>
   <v>       0.74534442       0.25143002       0.24842144 </v>
   <v>       0.74506928       0.25289289       0.74846651 </v>
   <v>       0.74736095       0.75093222       0.24909029 </v>
   <v>       0.74692896       0.75048911       0.74752053 </v>
  </varray>
 </structure>
</modeling>
