<?xml version="1.0" encoding="ISO-8859-1"?>
<modeling>
 <generator>
  <i name="program" type="string">vasp </i>
  <i name="version" type="string">5.4.1  </i>
  <i name="subversion" type="string">05Feb16 (build Mar 31 2016 13:39:20) complex                          parallel </i>
  <i name="platform" type="string">IFC91_ompi </i>
  <i name="date" type="string">2018 04 12 </i>
  <i name="time" type="string">14:18:41 </i>
 </generator>
 <incar>
  <i type="string" name="PREC">n</i>
  <i type="string" name="ALGO"> N</i>
  <i type="int" name="ISPIN">     2</i>
  <i type="int" name="NELM">   100</i>
  <i type="int" name="NELMIN">     4</i>
  <i type="int" name="IBRION">     2</i>
  <i name="EDIFF">      0.00000100</i>
  <i name="EDIFFG">     -0.05000000</i>
  <i type="int" name="NSW">    20</i>
  <i type="int" name="ISIF">     2</i>
  <i name="ENCUT">    400.00000000</i>
  <i name="NELECT">     64.00000000</i>
  <i type="string" name="LREAL"> A</i>
  <i type="int" name="ISMEAR">     0</i>
  <i name="SIGMA">      0.05000000</i>
  <i type="logical" name="LWAVE"> F  </i>
  <i type="logical" name="LCHARG"> F  </i>
  <i type="logical" name="LORBIT"> F  </i>
  <i type="logical" name="LASPH"> T  </i>
  <v type="int" name="KPOINT_BSE">    -1     0     0     0</v>
  <i type="int" name="NELM">   100</i>
  <i type="logical" name="LASPH"> T  </i>
 </incar>
 <kpoints>
  <generation param="Monkhorst-Pack">
   <v type="int" name="divisions">       2        2        2 </v>
   <v name="usershift">      0.00000000       0.00000000       0.00000000 </v>
   <v name="genvec1">      0.50000000       0.00000000       0.00000000 </v>
   <v name="genvec2">      0.00000000       0.50000000       0.00000000 </v>
   <v name="genvec3">      0.00000000       0.00000000       0.50000000 </v>
   <v name="shift">      0.50000000       0.50000000       0.50000000 </v>
  </generation>
  <varray name="kpointlist" >
   <v>       0.25000000       0.25000000       0.25000000 </v>
   <v>       0.25000000       0.00000000       0.00000000 </v>
   <v>       0.00000000       0.00000000      -0.25000000 </v>
   <v>       0.00000000       0.25000000       0.00000000 </v>
   <v>      -0.25000000       0.25000000       0.25000000 </v>
   <v>       0.25000000      -0.25000000       0.25000000 </v>
   <v>       0.25000000       0.25000000      -0.25000000 </v>
   <v>       0.25000000       0.00000000       0.50000000 </v>
   <v>      -0.25000000       0.50000000       0.50000000 </v>
   <v>       0.25000000       0.50000000       0.00000000 </v>
   <v>       0.00000000       0.50000000      -0.25000000 </v>
   <v>       0.50000000       0.00000000      -0.25000000 </v>
   <v>       0.50000000       0.50000000       0.25000000 </v>
   <v>       0.50000000      -0.25000000       0.50000000 </v>
   <v>       0.00000000       0.25000000       0.50000000 </v>
   <v>       0.50000000       0.25000000       0.00000000 </v>
  </varray>
  <varray name="weights" >
   <v>       0.06250000 </v>
   <v>       0.06250000 </v>
   <v>       0.06250000 </v>
   <v>       0.06250000 </v>
   <v>       0.06250000 </v>
   <v>       0.06250000 </v>
   <v>       0.06250000 </v>
   <v>       0.06250000 </v>
   <v>       0.06250000 </v>
   <v>       0.06250000 </v>
   <v>       0.06250000 </v>
   <v>       0.06250000 </v>
   <v>       0.06250000 </v>
   <v>       0.06250000 </v>
   <v>       0.06250000 </v>
   <v>       0.06250000 </v>
  </varray>
 </kpoints>
 <parameters>
  <separator name="general" >
   <i type="string" name="SYSTEM">unknown system</i>
   <i type="logical" name="LCOMPAT"> F  </i>
  </separator>
  <separator name="electronic" >
   <i type="string" name="PREC">n</i>
   <i name="ENMAX">    400.00000000</i>
   <i name="ENAUG">    605.39200000</i>
   <i name="EDIFF">      0.00000100</i>
   <i type="int" name="IALGO">    38</i>
   <i type="int" name="IWAVPR">    11</i>
   <i type="int" name="NBANDS">    52</i>
   <i name="NELECT">     64.00000000</i>
   <i type="int" name="TURBO">     0</i>
   <i type="int" name="IRESTART">     0</i>
   <i type="int" name="NREBOOT">     0</i>
   <i type="int" name="NMIN">     0</i>
   <i name="EREF">      0.00000000</i>
   <separator name="electronic smearing" >
    <i type="int" name="ISMEAR">     0</i>
    <i name="SIGMA">      0.05000000</i>
    <i name="KSPACING">      0.50000000</i>
    <i type="logical" name="KGAMMA"> T  </i>
   </separator>
   <separator name="electronic projectors" >
    <i type="logical" name="LREAL"> T  </i>
    <v name="ROPT">     -0.00050000     -0.00050000</v>
    <i type="int" name="LMAXPAW">  -100</i>
    <i type="int" name="LMAXMIX">     2</i>
    <i type="logical" name="NLSPLINE"> F  </i>
   </separator>
   <separator name="electronic startup" >
    <i type="int" name="ISTART">     0</i>
    <i type="int" name="ICHARG">     2</i>
    <i type="int" name="INIWAV">     1</i>
   </separator>
   <separator name="electronic spin" >
    <i type="int" name="ISPIN">     2</i>
    <i type="logical" name="LNONCOLLINEAR"> F  </i>
    <v name="MAGMOM">      1.00000000      1.00000000      1.00000000      1.00000000      1.00000000      1.00000000      1.00000000      1.00000000      1.00000000      1.00000000      1.00000000      1.00000000      1.00000000      1.00000000      1.00000000      1.00000000      1.00000000</v>
    <i name="NUPDOWN">     -1.00000000</i>
    <i type="logical" name="LSORBIT"> F  </i>
    <v name="SAXIS">      0.00000000      0.00000000      1.00000000</v>
    <i type="logical" name="LSPIRAL"> F  </i>
    <v name="QSPIRAL">      0.00000000      0.00000000      0.00000000</v>
    <i type="logical" name="LZEROZ"> F  </i>
   </separator>
   <separator name="electronic exchange-correlation" >
    <i type="logical" name="LASPH"> T  </i>
    <i type="logical" name="LMETAGGA"> F  </i>
   </separator>
   <separator name="electronic convergence" >
    <i type="int" name="NELM">   100</i>
    <i type="int" name="NELMDL">     0</i>
    <i type="int" name="NELMIN">     4</i>
    <i name="ENINI">    400.00000000</i>
    <separator name="electronic convergence detail" >
     <i type="logical" name="LDIAG"> T  </i>
     <i type="logical" name="LSUBROT"> F  </i>
     <i name="WEIMIN">      0.00100000</i>
     <i name="EBREAK">      0.00000000</i>
     <i name="DEPER">      0.30000000</i>
     <i type="int" name="NRMM">     4</i>
     <i name="TIME">      0.40000000</i>
    </separator>
   </separator>
   <separator name="electronic mixer" >
    <i name="AMIX">      0.40000000</i>
    <i name="BMIX">      1.00000000</i>
    <i name="AMIN">      0.10000000</i>
    <i name="AMIX_MAG">      1.60000000</i>
    <i name="BMIX_MAG">      1.00000000</i>
    <separator name="electronic mixer details" >
     <i type="int" name="IMIX">     4</i>
     <i type="logical" name="MIXFIRST"> F  </i>
     <i type="int" name="MAXMIX">   -45</i>
     <i name="WC">    100.00000000</i>
     <i type="int" name="INIMIX">     1</i>
     <i type="int" name="MIXPRE">     1</i>
     <i type="int" name="MREMOVE">     5</i>
    </separator>
   </separator>
   <separator name="electronic dipolcorrection" >
    <i type="logical" name="LDIPOL"> F  </i>
    <i type="logical" name="LMONO"> F  </i>
    <i type="int" name="IDIPOL">     0</i>
    <i name="EPSILON">      1.00000000</i>
    <v name="DIPOL">   -100.00000000   -100.00000000   -100.00000000</v>
    <i name="EFIELD">      0.00000000</i>
   </separator>
  </separator>
  <separator name="grids" >
   <i type="int" name="NGX">    30</i>
   <i type="int" name="NGY">    30</i>
   <i type="int" name="NGZ">    30</i>
   <i type="int" name="NGXF">    60</i>
   <i type="int" name="NGYF">    60</i>
   <i type="int" name="NGZF">    60</i>
   <i type="logical" name="ADDGRID"> F  </i>
  </separator>
  <separator name="ionic" >
   <i type="int" name="NSW">    20</i>
   <i type="int" name="IBRION">     2</i>
   <i type="int" name="ISIF">     2</i>
   <i name="PSTRESS">      0.00000000</i>
   <i name="EDIFFG">     -0.05000000</i>
   <i type="int" name="NFREE">     1</i>
   <i name="POTIM">      0.50000000</i>
   <i name="SMASS">     -3.00000000</i>
   <i name="SCALEE">      1.00000000</i>
  </separator>
  <separator name="ionic md" >
   <i name="TEBEG">      0.00010000</i>
   <i name="TEEND">      0.00010000</i>
   <i type="int" name="NBLOCK">     1</i>
   <i type="int" name="KBLOCK">    20</i>
   <i type="int" name="NPACO">   256</i>
   <i name="APACO">     16.00000000</i>
  </separator>
  <separator name="symmetry" >
   <i type="int" name="ISYM">     2</i>
   <i name="SYMPREC">      0.00001000</i>
  </separator>
  <separator name="dos" >
   <i type="logical" name="LORBIT"> F  </i>
   <v name="RWIGS">     -1.00000000     -1.00000000</v>
   <i type="int" name="NEDOS">   301</i>
   <i name="EMIN">     10.00000000</i>
   <i name="EMAX">    -10.00000000</i>
   <i name="EFERMI">      0.00000000</i>
  </separator>
  <separator name="writing" >
   <i type="int" name="NWRITE">     2</i>
   <i type="logical" name="LWAVE"> F  </i>
   <i type="logical" name="LCHARG"> F  </i>
   <i type="logical" name="LPARD"> F  </i>
   <i type="logical" name="LVTOT"> F  </i>
   <i type="logical" name="LVHAR"> F  </i>
   <i type="logical" name="LELF"> F  </i>
   <i type="logical" name="LOPTICS"> F  </i>
   <v name="STM">      0.00000000      0.00000000      0.00000000      0.00000000      0.00000000      0.00000000      0.00000000</v>
  </separator>
  <separator name="performance" >
   <i type="int" name="NPAR">     4</i>
   <i type="int" name="NSIM">     4</i>
   <i type="int" name="NBLK">    -1</i>
   <i type="logical" name="LPLANE"> T  </i>
   <i type="logical" name="LSCALAPACK"> T  </i>
   <i type="logical" name="LSCAAWARE"> F  </i>
   <i type="logical" name="LSCALU"> F  </i>
   <i type="logical" name="LASYNC"> F  </i>
   <i type="logical" name="LORBITALREAL"> F  </i>
  </separator>
  <separator name="miscellaneous" >
   <i type="int" name="IDIOT">     3</i>
   <i type="logical" name="LMUSIC"> F  </i>
   <v name="POMASS">     24.30500000     16.00000000</v>
   <v name="DARWINR">      0.00000000      0.00000000</v>
   <v name="DARWINV">      1.00000000      1.00000000</v>
   <i type="logical" name="LCORR"> T  </i>
  </separator>
  <i type="logical" name="GGA_COMPAT"> T  </i>
  <i type="logical" name="LBERRY"> F  </i>
  <i type="int" name="ICORELEVEL">     0</i>
  <i type="logical" name="LDAU"> F  </i>
  <i type="int" name="I_CONSTRAINED_M">     0</i>
  <separator name="electronic exchange-correlation" >
   <i type="string" name="GGA">--</i>
   <i type="int" name="VOSKOWN">     0</i>
   <i type="logical" name="LHFCALC"> F  </i>
   <i type="string" name="PRECFOCK"></i>
   <i type="logical" name="LSYMGRAD"> F  </i>
   <i type="logical" name="LHFONE"> F  </i>
   <i type="logical" name="LRHFCALC"> F  </i>
   <i type="logical" name="LTHOMAS"> F  </i>
   <i type="logical" name="LMODELHF"> F  </i>
   <i name="ENCUT4O">     -1.00000000</i>
   <i type="int" name="EXXOEP">     0</i>
   <i type="int" name="FOURORBIT">     0</i>
   <i name="AEXX">      0.00000000</i>
   <i name="HFALPHA">      0.00000000</i>
   <i name="MCALPHA">      0.00000000</i>
   <i name="ALDAX">      1.00000000</i>
   <i name="AGGAX">      1.00000000</i>
   <i name="ALDAC">      1.00000000</i>
   <i name="AGGAC">      1.00000000</i>
   <i type="int" name="NKREDX">     1</i>
   <i type="int" name="NKREDY">     1</i>
   <i type="int" name="NKREDZ">     1</i>
   <i type="logical" name="SHIFTRED"> F  </i>
   <i type="logical" name="ODDONLY"> F  </i>
   <i type="logical" name="EVENONLY"> F  </i>
   <i type="int" name="LMAXFOCK">     0</i>
   <i type="int" name="NMAXFOCKAE">     0</i>
   <i type="logical" name="LFOCKAEDFT"> F  </i>
   <i name="HFSCREEN">      0.00000000</i>
   <i name="HFSCREENC">      0.00000000</i>
   <i type="int" name="NBANDSGWLOW">     0</i>
  </separator>
  <separator name="vdW DFT" >
   <i type="logical" name="LUSE_VDW"> F  </i>
   <i name="Zab_VDW">     -0.84910000</i>
   <i name="PARAM1">      0.12340000</i>
   <i name="PARAM2">      1.00000000</i>
   <i name="PARAM3">      0.00000000</i>
  </separator>
  <separator name="model GW" >
   <i type="int" name="MODEL_GW">     0</i>
   <i name="MODEL_EPS0">      5.40687441</i>
   <i name="MODEL_ALPHA">      1.00000000</i>
  </separator>
  <separator name="linear response parameters" >
   <i type="logical" name="LEPSILON"> F  </i>
   <i type="logical" name="LRPA"> F  </i>
   <i type="logical" name="LNABLA"> F  </i>
   <i type="logical" name="LVEL"> F  </i>
   <i type="int" name="KINTER">     0</i>
   <i name="CSHIFT">      0.10000000</i>
   <i name="OMEGAMAX">     -1.00000000</i>
   <i name="DEG_THRESHOLD">      0.00200000</i>
  </separator>
  <separator name="orbital magnetization" >
   <i type="logical" name="NUCIND"> F  </i>
   <v name="MAGPOS">      0.00000000      0.00000000      0.00000000</v>
   <i type="logical" name="LNICSALL"> T  </i>
   <i type="logical" name="ORBITALMAG"> F  </i>
   <i type="logical" name="LMAGBLOCH"> F  </i>
   <i type="logical" name="LCHIMAG"> F  </i>
   <i type="logical" name="LGAUGE"> T  </i>
   <i type="int" name="MAGATOM">     0</i>
   <v name="MAGDIPOL">      0.00000000      0.00000000      0.00000000</v>
   <v name="AVECCONST">      0.00000000      0.00000000      0.00000000</v>
  </separator>
  <separator name="response functions" >
   <i type="logical" name="LADDER"> F  </i>
   <i type="logical" name="LFXC"> F  </i>
   <i type="logical" name="LHARTREE"> T  </i>
   <i type="int" name="IBSE">     0</i>
   <v type="int" name="KPOINT">    -1     0     0     0</v>
   <i type="logical" name="LTCTE"> F  </i>
   <i type="logical" name="LTETE"> F  </i>
   <i type="logical" name="LTRIPLET"> F  </i>
   <i type="logical" name="LFXCEPS"> F  </i>
   <i type="logical" name="LFXHEG"> F  </i>
   <i type="int" name="NATURALO">     0</i>
   <i type="logical" name="L2ORDER"> F  </i>
   <i type="logical" name="LUSEW"> F  </i>
   <i name="ENCUTGW">     -2.00000000</i>
   <i name="ENCUTGWSOFT">     -2.00000000</i>
   <i name="ENCUTLF">     -1.00000000</i>
   <i type="int" name="LMAXMP2">    -1</i>
   <i name="SCISSOR">      0.00000000</i>
   <i type="int" name="NOMEGA">     0</i>
   <i type="int" name="NOMEGAR">     0</i>
   <i type="int" name="NBANDSGW">    -1</i>
   <i type="int" name="NBANDSO">    -1</i>
   <i type="int" name="NBANDSV">    -1</i>
   <i type="int" name="NELM">   100</i>
   <i type="int" name="NELMHF">     1</i>
   <i type="int" name="DIM">     3</i>
   <i type="int" name="ANTIRES">     0</i>
   <i name="OMEGAMAX">    -30.00000000</i>
   <i name="OMEGAMIN">    -30.00000000</i>
   <i name="OMEGATL">   -200.00000000</i>
   <i type="int" name="OMEGAGRID">     0</i>
   <i name="CSHIFT">     -0.10000000</i>
   <i type="logical" name="SELFENERGY"> F  </i>
   <i type="logical" name="LSPECTRAL"> F  </i>
   <i type="logical" name="LSPECTRALGW"> F  </i>
   <i type="logical" name="LSINGLES"> F  </i>
   <i type="logical" name="LFERMIGW"> F  </i>
   <i type="logical" name="ODDONLYGW"> F  </i>
   <i type="logical" name="EVENONLYGW"> F  </i>
   <i type="int" name="NKREDLFX">     1</i>
   <i type="int" name="NKREDLFY">     1</i>
   <i type="int" name="NKREDLFZ">     1</i>
   <i type="int" name="MAXMEM">  1800</i>
   <i type="int" name="TELESCOPE">     0</i>
   <i type="int" name="TAUPAR">     1</i>
   <i type="int" name="OMEGAPAR">    -1</i>
   <i name="LAMBDA">      1.00000000</i>
  </separator>
  <separator name="External order field" >
   <i name="OFIELD_KAPPA">      0.00000000</i>
   <v name="OFIELD_K">      0.00000000      0.00000000      0.00000000</v>
   <i name="OFIELD_Q6_NEAR">      0.00000000</i>
   <i name="OFIELD_Q6_FAR">      0.00000000</i>
   <i name="OFIELD_A">      0.00000000</i>
  </separator>
 </parameters>
 <atominfo>
  <atoms>      17 </atoms>
  <types>       2 </types>
  <array name="atoms" >
   <dimension dim="1">ion</dimension>
   <field type="string">element</field>
   <field type="int">atomtype</field>
   <set>
    <rc><c>Mg</c><c>   1</c></rc>
    <rc><c>Mg</c><c>   1</c></rc>
    <rc><c>Mg</c><c>   1</c></rc>
    <rc><c>Mg</c><c>   1</c></rc>
    <rc><c>Mg</c><c>   1</c></rc>
    <rc><c>Mg</c><c>   1</c></rc>
    <rc><c>Mg</c><c>   1</c></rc>
    <rc><c>Mg</c><c>   1</c></rc>
    <rc><c>Mg</c><c>   1</c></rc>
    <rc><c>O </c><c>   2</c></rc>
    <rc><c>O </c><c>   2</c></rc>
    <rc><c>O </c><c>   2</c></rc>
    <rc><c>O </c><c>   2</c></rc>
    <rc><c>O </c><c>   2</c></rc>
    <rc><c>O </c><c>   2</c></rc>
    <rc><c>O </c><c>   2</c></rc>
    <rc><c>O </c><c>   2</c></rc>
   </set>
  </array>
  <array name="atomtypes" >
   <dimension dim="1">type</dimension>
   <field type="int">atomspertype</field>
   <field type="string">element</field>
   <field>mass</field>
   <field>valence</field>
   <field type="string">pseudopotential</field>
   <set>
    <rc><c>   9</c><c>Mg</c><c>     24.30500000</c><c>      2.00000000</c><c>  PAW_PBE Mg 13Apr2007                  </c></rc>
    <rc><c>   8</c><c>O </c><c>     16.00000000</c><c>      6.00000000</c><c>  PAW_PBE O 08Apr2002                   </c></rc>
   </set>
  </array>
 </atominfo>
 <structure name="initialpos" >
  <crystal>
   <varray name="basis" >
    <v>       0.00000000       4.24689300       4.24689300 </v>
    <v>       4.24689300       0.00000000       4.24689300 </v>
    <v>       4.24689300       4.24689300       0.00000000 </v>
   </varray>
   <i name="volume">    153.19477498 </i>
   <varray name="rec_basis" >
    <v>      -0.11773313       0.11773313       0.11773313 </v>
    <v>       0.11773313      -0.11773313       0.11773313 </v>
    <v>       0.11773313       0.11773313      -0.11773313 </v>
   </varray>
  </crystal>
  <varray name="positions" >
   <v>       0.12176893       0.12706428       0.12320262 </v>
   <v>       0.97735949       0.98357802       0.97866399 </v>
   <v>       0.97723264       0.98335529       0.55521382 </v>
   <v>       0.97936569       0.55901929       0.97856982 </v>
   <v>       0.99600901       0.50242518       0.49878482 </v>
   <v>       0.55411715       0.98101961       0.97982109 </v>
   <v>       0.49691383       0.00105350       0.49823106 </v>
   <v>       0.49713552       0.50230668       0.99744859 </v>
   <v>       0.49795500       0.50158847       0.49846651 </v>
   <v>       0.24649441       0.25319876       0.24874072 </v>
   <v>       0.24697776       0.25226719       0.74674805 </v>
   <v>       0.24832625       0.75038161       0.24834923 </v>
   <v>       0.24849108       0.75218218       0.74709519 </v>
   <v>       0.74548009       0.25170934       0.24856441 </v>
   <v>       0.74504886       0.25342361       0.74816691 </v>
   <v>       0.74693485       0.75108213       0.24953409 </v>
   <v>       0.74689843       0.75084985       0.74733209 </v>
  </varray>
 </structure>
 <calculation>
  <scstep>
   <time name="dav">    0.74    0.74</time>
   <time name="total">    1.10    1.11</time>
   <energy>
    <i name="alphaZ">    167.07285220 </i>
    <i name="ewald">  -2904.94064045 </i>
    <i name="hartreedc">   -981.64106025 </i>
    <i name="XCdc">   -207.33980255 </i>
    <i name="pawpsdc">   3357.85734499 </i>
    <i name="pawaedc">  -2905.44438128 </i>
    <i name="eentropy">     -0.00367586 </i>
    <i name="bandstr">     62.13850793 </i>
    <i name="atom">   3665.43652948 </i>
    <i name="e_fr_energy">    253.13567422 </i>
    <i name="e_wo_entrp">    253.13935008 </i>
    <i name="e_0_energy">    253.13751215 </i>
   </energy>
  </scstep>
  <scstep>
   <time name="dav">    0.80    0.80</time>
   <time name="total">    0.81    0.81</time>
   <energy>
    <i name="e_fr_energy">    -89.53026356 </i>
    <i name="e_wo_entrp">    -89.53026356 </i>
    <i name="e_0_energy">    -89.53026356 </i>
   </energy>
  </scstep>
  <scstep>
   <time name="dav">    0.78    0.79</time>
   <time name="total">    0.78    0.79</time>
   <energy>
    <i name="e_fr_energy">   -106.39671293 </i>
    <i name="e_wo_entrp">   -106.39671293 </i>
    <i name="e_0_energy">   -106.39671293 </i>
   </energy>
  </scstep>
  <scstep>
   <time name="dav">    0.78    0.77</time>
   <time name="total">    0.78    0.78</time>
   <energy>
    <i name="e_fr_energy">   -106.49250053 </i>
    <i name="e_wo_entrp">   -106.49250053 </i>
    <i name="e_0_energy">   -106.49250053 </i>
   </energy>
  </scstep>
  <scstep>
   <time name="dav">    0.74    0.75</time>
   <time name="total">    0.76    0.77</time>
   <energy>
    <i name="e_fr_energy">   -106.49295187 </i>
    <i name="e_wo_entrp">   -106.49295187 </i>
    <i name="e_0_energy">   -106.49295187 </i>
   </energy>
  </scstep>
  <scstep>
   <time name="dav">    0.70    0.70</time>
   <time name="total">    1.08    1.09</time>
   <energy>
    <i name="e_fr_energy">   -102.27216922 </i>
    <i name="e_wo_entrp">   -102.27216922 </i>
    <i name="e_0_energy">   -102.27216922 </i>
   </energy>
  </scstep>
  <scstep>
   <time name="dav">    0.72    0.72</time>
   <time name="total">    1.11    1.11</time>
   <energy>
    <i name="e_fr_energy">   -102.44734688 </i>
    <i name="e_wo_entrp">   -102.44734688 </i>
    <i name="e_0_energy">   -102.44734688 </i>
   </energy>
  </scstep>
  <scstep>
   <time name="dav">    0.76    0.75</time>
   <time name="total">    1.14    1.14</time>
   <energy>
    <i name="e_fr_energy">   -102.36972669 </i>
    <i name="e_wo_entrp">   -102.36972669 </i>
    <i name="e_0_energy">   -102.36972669 </i>
   </energy>
  </scstep>
  <scstep>
   <time name="dav">    0.74    0.74</time>
   <time name="total">    1.12    1.12</time>
   <energy>
    <i name="e_fr_energy">   -102.36762984 </i>
    <i name="e_wo_entrp">   -102.36762984 </i>
    <i name="e_0_energy">   -102.36762984 </i>
   </energy>
  </scstep>
  <scstep>
   <time name="dav">    0.79    0.79</time>
   <time name="total">    1.18    1.18</time>
   <energy>
    <i name="e_fr_energy">   -102.36625045 </i>
    <i name="e_wo_entrp">   -102.36625045 </i>
    <i name="e_0_energy">   -102.36625045 </i>
   </energy>
  </scstep>
  <scstep>
   <time name="dav">    0.73    0.73</time>
   <time name="total">    1.11    1.12</time>
   <energy>
    <i name="e_fr_energy">   -102.36670740 </i>
    <i name="e_wo_entrp">   -102.36670740 </i>
    <i name="e_0_energy">   -102.36670740 </i>
   </energy>
  </scstep>
  <scstep>
   <time name="dav">    0.75    0.75</time>
   <time name="total">    1.14    1.14</time>
   <energy>
    <i name="e_fr_energy">   -102.36685447 </i>
    <i name="e_wo_entrp">   -102.36685447 </i>
    <i name="e_0_energy">   -102.36685447 </i>
   </energy>
  </scstep>
  <scstep>
   <time name="dav">    0.75    0.75</time>
   <time name="total">    1.14    1.14</time>
   <energy>
    <i name="e_fr_energy">   -102.36686480 </i>
    <i name="e_wo_entrp">   -102.36686480 </i>
    <i name="e_0_energy">   -102.36686480 </i>
   </energy>
  </scstep>
  <scstep>
   <time name="dav">    0.71    0.71</time>
   <time name="total">    1.10    1.10</time>
   <energy>
    <i name="e_fr_energy">   -102.36686596 </i>
    <i name="e_wo_entrp">   -102.36686596 </i>
    <i name="e_0_energy">   -102.36686596 </i>
   </energy>
  </scstep>
  <scstep>
   <time name="dav">    0.55    0.55</time>
   <time name="total">    0.92    0.92</time>
   <energy>
    <i name="alphaZ">    167.07285220 </i>
    <i name="ewald">  -2904.94064045 </i>
    <i name="hartreedc">  -1141.17624250 </i>
    <i name="XCdc">   -204.11123071 </i>
    <i name="pawpsdc">   4550.35847800 </i>
    <i name="pawaedc">  -4100.16720226 </i>
    <i name="eentropy">     -0.00000000 </i>
    <i name="bandstr">   -134.83941013 </i>
    <i name="atom">   3665.43652948 </i>
    <i name="e_fr_energy">   -102.36686637 </i>
    <i name="e_wo_entrp">   -102.36686637 </i>
    <i name="e_0_energy">   -102.36686637 </i>
   </energy>
  </scstep>
  <structure>
   <crystal>
    <varray name="basis" >
     <v>       0.00000000       4.24689300       4.24689300 </v>
     <v>       4.24689300       0.00000000       4.24689300 </v>
     <v>       4.24689300       4.24689300       0.00000000 </v>
    </varray>
    <i name="volume">    153.19477498 </i>
    <varray name="rec_basis" >
     <v>      -0.11773313       0.11773313       0.11773313 </v>
     <v>       0.11773313      -0.11773313       0.11773313 </v>
     <v>       0.11773313       0.11773313      -0.11773313 </v>
    </varray>
   </crystal>
   <varray name="positions" >
    <v>       0.12176893       0.12706428       0.12320262 </v>
    <v>       0.97735949       0.98357802       0.97866399 </v>
    <v>       0.97723264       0.98335529       0.55521382 </v>
    <v>       0.97936569       0.55901929       0.97856982 </v>
    <v>       0.99600901       0.50242518       0.49878482 </v>
    <v>       0.55411715       0.98101961       0.97982109 </v>
    <v>       0.49691383       0.00105350       0.49823106 </v>
    <v>       0.49713552       0.50230668       0.99744859 </v>
    <v>       0.49795500       0.50158847       0.49846651 </v>
    <v>       0.24649441       0.25319876       0.24874072 </v>
    <v>       0.24697776       0.25226719       0.74674805 </v>
    <v>       0.24832625       0.75038161       0.24834923 </v>
    <v>       0.24849108       0.75218218       0.74709519 </v>
    <v>       0.74548009       0.25170934       0.24856441 </v>
    <v>       0.74504886       0.25342361       0.74816691 </v>
    <v>       0.74693485       0.75108213       0.24953409 </v>
    <v>       0.74689843       0.75084985       0.74733209 </v>
   </varray>
  </structure>
  <varray name="forces" >
   <v>      -0.02734810       0.00994997      -0.00538496 </v>
   <v>       0.02339299       0.02012240       0.01656963 </v>
   <v>      -0.00436859      -0.00250477       0.00294468 </v>
   <v>      -0.00623640      -0.00118051      -0.01551843 </v>
   <v>      -0.02021656      -0.00788190       0.00306301 </v>
   <v>       0.01299285      -0.02348065       0.00139545 </v>
   <v>       0.00468835       0.00339033       0.00658476 </v>
   <v>      -0.01255090       0.00367394      -0.01273703 </v>
   <v>       0.01135788      -0.02372363      -0.01390075 </v>
   <v>      -0.00752913       0.00710149      -0.00034704 </v>
   <v>       0.00078125       0.00077491       0.01079701 </v>
   <v>       0.01311984      -0.00998351       0.00581965 </v>
   <v>      -0.01277802       0.00639205       0.00205461 </v>
   <v>       0.01801973      -0.00155283      -0.00498671 </v>
   <v>      -0.01170239       0.00760884       0.02057626 </v>
   <v>       0.00997511       0.00355834      -0.01198214 </v>
   <v>       0.00840210       0.00773553      -0.00494800 </v>
  </varray>
  <varray name="stress" >
   <v>      -9.20940759       0.21797521       0.07033807 </v>
   <v>       0.21797533      -9.60272684      -0.05581386 </v>
   <v>       0.07033849      -0.05581427      -9.86482306 </v>
  </varray>
  <energy>
   <i name="e_fr_energy">   -102.36686637 </i>
   <i name="e_wo_entrp">   -102.36686637 </i>
   <i name="e_0_energy">     -0.00000000 </i>
  </energy>
  <time name="totalsc">   16.55   16.61</time>
  <eigenvalues>
   <array>
    <dimension dim="1">band</dimension>
    <dimension dim="2">kpoint</dimension>
    <dimension dim="3">spin</dimension>
    <field>eigene</field>
    <field>occ</field>
    <set>
     <set comment="spin 1">
      <set comment="kpoint 1">
       <r>  -13.6481    1.0000 </r>
       <r>  -12.8090    1.0000 </r>
       <r>  -12.5910    1.0000 </r>
       <r>  -12.5710    1.0000 </r>
       <r>  -12.5689    1.0000 </r>
       <r>  -12.4014    1.0000 </r>
       <r>  -12.4004    1.0000 </r>
       <r>  -12.3985    1.0000 </r>
       <r>   -1.0536    1.0000 </r>
       <r>   -0.7856    1.0000 </r>
       <r>   -0.7837    1.0000 </r>
       <r>   -0.6088    1.0000 </r>
       <r>   -0.5693    1.0000 </r>
       <r>   -0.2716    1.0000 </r>
       <r>   -0.2709    1.0000 </r>
       <r>    1.4692    1.0000 </r>
       <r>    1.6636    1.0000 </r>
       <r>    1.6673    1.0000 </r>
       <r>    1.9767    1.0000 </r>
       <r>    2.0519    1.0000 </r>
       <r>    2.0529    1.0000 </r>
       <r>    2.2611    1.0000 </r>
       <r>    2.2645    1.0000 </r>
       <r>    2.2686    1.0000 </r>
       <r>    2.3667    1.0000 </r>
       <r>    2.4639    1.0000 </r>
       <r>    2.4655    1.0000 </r>
       <r>    2.7616    1.0000 </r>
       <r>    2.8473    1.0000 </r>
       <r>    2.8479    1.0000 </r>
       <r>    3.1762    1.0000 </r>
       <r>    3.1766    1.0000 </r>
       <r>    8.7755    0.0000 </r>
       <r>   10.8774    0.0000 </r>
       <r>   11.4541    0.0000 </r>
       <r>   11.7374    0.0000 </r>
       <r>   11.7458    0.0000 </r>
       <r>   12.6543    0.0000 </r>
       <r>   12.6873    0.0000 </r>
       <r>   12.6958    0.0000 </r>
       <r>   13.2331    0.0000 </r>
       <r>   13.2404    0.0000 </r>
       <r>   13.7515    0.0000 </r>
       <r>   15.3549    0.0000 </r>
       <r>   15.5778    0.0000 </r>
       <r>   15.5850    0.0000 </r>
       <r>   15.6048    0.0000 </r>
       <r>   16.1434    0.0000 </r>
       <r>   16.1835    0.0000 </r>
       <r>   16.1902    0.0000 </r>
       <r>   17.4378    0.0000 </r>
       <r>   17.4427    0.0000 </r>
      </set>
      <set comment="kpoint 2">
       <r>  -13.6482    1.0000 </r>
       <r>  -12.8088    1.0000 </r>
       <r>  -12.5916    1.0000 </r>
       <r>  -12.5706    1.0000 </r>
       <r>  -12.5689    1.0000 </r>
       <r>  -12.4021    1.0000 </r>
       <r>  -12.3998    1.0000 </r>
       <r>  -12.3984    1.0000 </r>
       <r>   -1.0536    1.0000 </r>
       <r>   -0.7858    1.0000 </r>
       <r>   -0.7839    1.0000 </r>
       <r>   -0.6087    1.0000 </r>
       <r>   -0.5689    1.0000 </r>
       <r>   -0.2719    1.0000 </r>
       <r>   -0.2708    1.0000 </r>
       <r>    1.4689    1.0000 </r>
       <r>    1.6651    1.0000 </r>
       <r>    1.6669    1.0000 </r>
       <r>    1.9764    1.0000 </r>
       <r>    2.0516    1.0000 </r>
       <r>    2.0534    1.0000 </r>
       <r>    2.2607    1.0000 </r>
       <r>    2.2640    1.0000 </r>
       <r>    2.2694    1.0000 </r>
       <r>    2.3671    1.0000 </r>
       <r>    2.4628    1.0000 </r>
       <r>    2.4670    1.0000 </r>
       <r>    2.7621    1.0000 </r>
       <r>    2.8468    1.0000 </r>
       <r>    2.8477    1.0000 </r>
       <r>    3.1757    1.0000 </r>
       <r>    3.1762    1.0000 </r>
       <r>    8.7755    0.0000 </r>
       <r>   10.8771    0.0000 </r>
       <r>   11.4538    0.0000 </r>
       <r>   11.7396    0.0000 </r>
       <r>   11.7441    0.0000 </r>
       <r>   12.6512    0.0000 </r>
       <r>   12.6876    0.0000 </r>
       <r>   12.6959    0.0000 </r>
       <r>   13.2357    0.0000 </r>
       <r>   13.2416    0.0000 </r>
       <r>   13.7517    0.0000 </r>
       <r>   15.3547    0.0000 </r>
       <r>   15.5788    0.0000 </r>
       <r>   15.5807    0.0000 </r>
       <r>   15.6048    0.0000 </r>
       <r>   16.1466    0.0000 </r>
       <r>   16.1857    0.0000 </r>
       <r>   16.1885    0.0000 </r>
       <r>   17.4383    0.0000 </r>
       <r>   17.4806    0.0000 </r>
      </set>
      <set comment="kpoint 3">
       <r>  -13.6482    1.0000 </r>
       <r>  -12.8090    1.0000 </r>
       <r>  -12.5904    1.0000 </r>
       <r>  -12.5713    1.0000 </r>
       <r>  -12.5692    1.0000 </r>
       <r>  -12.4012    1.0000 </r>
       <r>  -12.4005    1.0000 </r>
       <r>  -12.3986    1.0000 </r>
       <r>   -1.0540    1.0000 </r>
       <r>   -0.7851    1.0000 </r>
       <r>   -0.7838    1.0000 </r>
       <r>   -0.6094    1.0000 </r>
       <r>   -0.5689    1.0000 </r>
       <r>   -0.2717    1.0000 </r>
       <r>   -0.2707    1.0000 </r>
       <r>    1.4696    1.0000 </r>
       <r>    1.6649    1.0000 </r>
       <r>    1.6667    1.0000 </r>
       <r>    1.9776    1.0000 </r>
       <r>    2.0516    1.0000 </r>
       <r>    2.0527    1.0000 </r>
       <r>    2.2626    1.0000 </r>
       <r>    2.2648    1.0000 </r>
       <r>    2.2667    1.0000 </r>
       <r>    2.3669    1.0000 </r>
       <r>    2.4634    1.0000 </r>
       <r>    2.4643    1.0000 </r>
       <r>    2.7617    1.0000 </r>
       <r>    2.8474    1.0000 </r>
       <r>    2.8483    1.0000 </r>
       <r>    3.1759    1.0000 </r>
       <r>    3.1763    1.0000 </r>
       <r>    8.7755    0.0000 </r>
       <r>   10.8767    0.0000 </r>
       <r>   11.4550    0.0000 </r>
       <r>   11.7352    0.0000 </r>
       <r>   11.7469    0.0000 </r>
       <r>   12.6518    0.0000 </r>
       <r>   12.6836    0.0000 </r>
       <r>   12.7006    0.0000 </r>
       <r>   13.2358    0.0000 </r>
       <r>   13.2417    0.0000 </r>
       <r>   13.7518    0.0000 </r>
       <r>   15.3552    0.0000 </r>
       <r>   15.5773    0.0000 </r>
       <r>   15.5816    0.0000 </r>
       <r>   15.6034    0.0000 </r>
       <r>   16.1474    0.0000 </r>
       <r>   16.1853    0.0000 </r>
       <r>   16.1889    0.0000 </r>
       <r>   17.4363    0.0000 </r>
       <r>   17.4469    0.0000 </r>
      </set>
      <set comment="kpoint 4">
       <r>  -13.6482    1.0000 </r>
       <r>  -12.8091    1.0000 </r>
       <r>  -12.5891    1.0000 </r>
       <r>  -12.5713    1.0000 </r>
       <r>  -12.5704    1.0000 </r>
       <r>  -12.4011    1.0000 </r>
       <r>  -12.3999    1.0000 </r>
       <r>  -12.3993    1.0000 </r>
       <r>   -1.0542    1.0000 </r>
       <r>   -0.7846    1.0000 </r>
       <r>   -0.7839    1.0000 </r>
       <r>   -0.6089    1.0000 </r>
       <r>   -0.5695    1.0000 </r>
       <r>   -0.2714    1.0000 </r>
       <r>   -0.2709    1.0000 </r>
       <r>    1.4702    1.0000 </r>
       <r>    1.6648    1.0000 </r>
       <r>    1.6662    1.0000 </r>
       <r>    1.9782    1.0000 </r>
       <r>    2.0522    1.0000 </r>
       <r>    2.0528    1.0000 </r>
       <r>    2.2610    1.0000 </r>
       <r>    2.2631    1.0000 </r>
       <r>    2.2688    1.0000 </r>
       <r>    2.3668    1.0000 </r>
       <r>    2.4620    1.0000 </r>
       <r>    2.4650    1.0000 </r>
       <r>    2.7612    1.0000 </r>
       <r>    2.8475    1.0000 </r>
       <r>    2.8490    1.0000 </r>
       <r>    3.1757    1.0000 </r>
       <r>    3.1766    1.0000 </r>
       <r>    8.7757    0.0000 </r>
       <r>   10.8773    0.0000 </r>
       <r>   11.4548    0.0000 </r>
       <r>   11.7392    0.0000 </r>
       <r>   11.7430    0.0000 </r>
       <r>   12.6522    0.0000 </r>
       <r>   12.6896    0.0000 </r>
       <r>   12.6950    0.0000 </r>
       <r>   13.2335    0.0000 </r>
       <r>   13.2425    0.0000 </r>
       <r>   13.7517    0.0000 </r>
       <r>   15.3551    0.0000 </r>
       <r>   15.5793    0.0000 </r>
       <r>   15.5805    0.0000 </r>
       <r>   15.6038    0.0000 </r>
       <r>   16.1458    0.0000 </r>
       <r>   16.1851    0.0000 </r>
       <r>   16.1891    0.0000 </r>
       <r>   17.4374    0.0000 </r>
       <r>   17.4697    0.0000 </r>
      </set>
      <set comment="kpoint 5">
       <r>  -13.2935    1.0000 </r>
       <r>  -13.0021    1.0000 </r>
       <r>  -12.7735    1.0000 </r>
       <r>  -12.6207    1.0000 </r>
       <r>  -12.6108    1.0000 </r>
       <r>  -12.4514    1.0000 </r>
       <r>  -12.3681    1.0000 </r>
       <r>  -12.3654    1.0000 </r>
       <r>   -0.4472    1.0000 </r>
       <r>   -0.2260    1.0000 </r>
       <r>   -0.2210    1.0000 </r>
       <r>   -0.1580    1.0000 </r>
       <r>    0.0760    1.0000 </r>
       <r>    0.1447    1.0000 </r>
       <r>    0.2387    1.0000 </r>
       <r>    0.7662    1.0000 </r>
       <r>    1.0304    1.0000 </r>
       <r>    1.0574    1.0000 </r>
       <r>    1.1635    1.0000 </r>
       <r>    1.6423    1.0000 </r>
       <r>    1.6647    1.0000 </r>
       <r>    1.8406    1.0000 </r>
       <r>    1.9588    1.0000 </r>
       <r>    2.1633    1.0000 </r>
       <r>    2.2342    1.0000 </r>
       <r>    2.4072    1.0000 </r>
       <r>    2.4397    1.0000 </r>
       <r>    2.5180    1.0000 </r>
       <r>    2.6272    1.0000 </r>
       <r>    2.8533    1.0000 </r>
       <r>    2.8567    1.0000 </r>
       <r>    2.9462    1.0000 </r>
       <r>   10.2839    0.0000 </r>
       <r>   11.1131    0.0000 </r>
       <r>   11.8756    0.0000 </r>
       <r>   12.4361    0.0000 </r>
       <r>   12.4590    0.0000 </r>
       <r>   12.9892    0.0000 </r>
       <r>   13.6221    0.0000 </r>
       <r>   13.6893    0.0000 </r>
       <r>   14.0033    0.0000 </r>
       <r>   14.0934    0.0000 </r>
       <r>   14.2349    0.0000 </r>
       <r>   14.7356    0.0000 </r>
       <r>   15.1567    0.0000 </r>
       <r>   15.1724    0.0000 </r>
       <r>   15.3690    0.0000 </r>
       <r>   15.5589    0.0000 </r>
       <r>   15.6815    0.0000 </r>
       <r>   15.7766    0.0000 </r>
       <r>   16.4267    0.0000 </r>
       <r>   16.9049    0.0000 </r>
      </set>
      <set comment="kpoint 6">
       <r>  -13.2935    1.0000 </r>
       <r>  -13.0024    1.0000 </r>
       <r>  -12.7732    1.0000 </r>
       <r>  -12.6190    1.0000 </r>
       <r>  -12.6124    1.0000 </r>
       <r>  -12.4517    1.0000 </r>
       <r>  -12.3672    1.0000 </r>
       <r>  -12.3661    1.0000 </r>
       <r>   -0.4482    1.0000 </r>
       <r>   -0.2278    1.0000 </r>
       <r>   -0.2197    1.0000 </r>
       <r>   -0.1567    1.0000 </r>
       <r>    0.0771    1.0000 </r>
       <r>    0.1445    1.0000 </r>
       <r>    0.2389    1.0000 </r>
       <r>    0.7676    1.0000 </r>
       <r>    1.0291    1.0000 </r>
       <r>    1.0567    1.0000 </r>
       <r>    1.1638    1.0000 </r>
       <r>    1.6423    1.0000 </r>
       <r>    1.6647    1.0000 </r>
       <r>    1.8415    1.0000 </r>
       <r>    1.9578    1.0000 </r>
       <r>    2.1640    1.0000 </r>
       <r>    2.2343    1.0000 </r>
       <r>    2.4047    1.0000 </r>
       <r>    2.4394    1.0000 </r>
       <r>    2.5194    1.0000 </r>
       <r>    2.6257    1.0000 </r>
       <r>    2.8530    1.0000 </r>
       <r>    2.8574    1.0000 </r>
       <r>    2.9470    1.0000 </r>
       <r>   10.2845    0.0000 </r>
       <r>   11.1133    0.0000 </r>
       <r>   11.8748    0.0000 </r>
       <r>   12.4358    0.0000 </r>
       <r>   12.4549    0.0000 </r>
       <r>   12.9945    0.0000 </r>
       <r>   13.6165    0.0000 </r>
       <r>   13.6958    0.0000 </r>
       <r>   14.0143    0.0000 </r>
       <r>   14.0974    0.0000 </r>
       <r>   14.2233    0.0000 </r>
       <r>   14.7330    0.0000 </r>
       <r>   15.1561    0.0000 </r>
       <r>   15.1822    0.0000 </r>
       <r>   15.3605    0.0000 </r>
       <r>   15.5460    0.0000 </r>
       <r>   15.6780    0.0000 </r>
       <r>   15.7899    0.0000 </r>
       <r>   16.4190    0.0000 </r>
       <r>   16.9108    0.0000 </r>
      </set>
      <set comment="kpoint 7">
       <r>  -13.2936    1.0000 </r>
       <r>  -13.0022    1.0000 </r>
       <r>  -12.7735    1.0000 </r>
       <r>  -12.6195    1.0000 </r>
       <r>  -12.6116    1.0000 </r>
       <r>  -12.4515    1.0000 </r>
       <r>  -12.3671    1.0000 </r>
       <r>  -12.3665    1.0000 </r>
       <r>   -0.4481    1.0000 </r>
       <r>   -0.2258    1.0000 </r>
       <r>   -0.2227    1.0000 </r>
       <r>   -0.1564    1.0000 </r>
       <r>    0.0766    1.0000 </r>
       <r>    0.1446    1.0000 </r>
       <r>    0.2392    1.0000 </r>
       <r>    0.7670    1.0000 </r>
       <r>    1.0301    1.0000 </r>
       <r>    1.0571    1.0000 </r>
       <r>    1.1635    1.0000 </r>
       <r>    1.6429    1.0000 </r>
       <r>    1.6646    1.0000 </r>
       <r>    1.8414    1.0000 </r>
       <r>    1.9591    1.0000 </r>
       <r>    2.1640    1.0000 </r>
       <r>    2.2334    1.0000 </r>
       <r>    2.4060    1.0000 </r>
       <r>    2.4380    1.0000 </r>
       <r>    2.5183    1.0000 </r>
       <r>    2.6266    1.0000 </r>
       <r>    2.8534    1.0000 </r>
       <r>    2.8569    1.0000 </r>
       <r>    2.9465    1.0000 </r>
       <r>   10.2843    0.0000 </r>
       <r>   11.1120    0.0000 </r>
       <r>   11.8735    0.0000 </r>
       <r>   12.4371    0.0000 </r>
       <r>   12.4575    0.0000 </r>
       <r>   12.9918    0.0000 </r>
       <r>   13.6206    0.0000 </r>
       <r>   13.6947    0.0000 </r>
       <r>   14.0050    0.0000 </r>
       <r>   14.0955    0.0000 </r>
       <r>   14.2325    0.0000 </r>
       <r>   14.7336    0.0000 </r>
       <r>   15.1566    0.0000 </r>
       <r>   15.1768    0.0000 </r>
       <r>   15.3602    0.0000 </r>
       <r>   15.5530    0.0000 </r>
       <r>   15.6804    0.0000 </r>
       <r>   15.7875    0.0000 </r>
       <r>   16.4241    0.0000 </r>
       <r>   16.8905    0.0000 </r>
      </set>
      <set comment="kpoint 8">
       <r>  -13.2935    1.0000 </r>
       <r>  -13.0023    1.0000 </r>
       <r>  -12.7730    1.0000 </r>
       <r>  -12.6204    1.0000 </r>
       <r>  -12.6113    1.0000 </r>
       <r>  -12.4515    1.0000 </r>
       <r>  -12.3677    1.0000 </r>
       <r>  -12.3657    1.0000 </r>
       <r>   -0.4478    1.0000 </r>
       <r>   -0.2261    1.0000 </r>
       <r>   -0.2212    1.0000 </r>
       <r>   -0.1578    1.0000 </r>
       <r>    0.0769    1.0000 </r>
       <r>    0.1444    1.0000 </r>
       <r>    0.2393    1.0000 </r>
       <r>    0.7670    1.0000 </r>
       <r>    1.0302    1.0000 </r>
       <r>    1.0572    1.0000 </r>
       <r>    1.1629    1.0000 </r>
       <r>    1.6429    1.0000 </r>
       <r>    1.6640    1.0000 </r>
       <r>    1.8404    1.0000 </r>
       <r>    1.9585    1.0000 </r>
       <r>    2.1643    1.0000 </r>
       <r>    2.2340    1.0000 </r>
       <r>    2.4057    1.0000 </r>
       <r>    2.4391    1.0000 </r>
       <r>    2.5191    1.0000 </r>
       <r>    2.6269    1.0000 </r>
       <r>    2.8538    1.0000 </r>
       <r>    2.8561    1.0000 </r>
       <r>    2.9465    1.0000 </r>
       <r>   10.2841    0.0000 </r>
       <r>   11.1133    0.0000 </r>
       <r>   11.8720    0.0000 </r>
       <r>   12.4397    0.0000 </r>
       <r>   12.4564    0.0000 </r>
       <r>   12.9928    0.0000 </r>
       <r>   13.6160    0.0000 </r>
       <r>   13.6958    0.0000 </r>
       <r>   14.0097    0.0000 </r>
       <r>   14.0979    0.0000 </r>
       <r>   14.2247    0.0000 </r>
       <r>   14.7333    0.0000 </r>
       <r>   15.1553    0.0000 </r>
       <r>   15.1830    0.0000 </r>
       <r>   15.3625    0.0000 </r>
       <r>   15.5492    0.0000 </r>
       <r>   15.6785    0.0000 </r>
       <r>   15.7874    0.0000 </r>
       <r>   16.4227    0.0000 </r>
       <r>   16.9112    0.0000 </r>
      </set>
      <set comment="kpoint 9">
       <r>  -13.2934    1.0000 </r>
       <r>  -13.0025    1.0000 </r>
       <r>  -12.7731    1.0000 </r>
       <r>  -12.6207    1.0000 </r>
       <r>  -12.6108    1.0000 </r>
       <r>  -12.4518    1.0000 </r>
       <r>  -12.3678    1.0000 </r>
       <r>  -12.3655    1.0000 </r>
       <r>   -0.4473    1.0000 </r>
       <r>   -0.2272    1.0000 </r>
       <r>   -0.2192    1.0000 </r>
       <r>   -0.1584    1.0000 </r>
       <r>    0.0765    1.0000 </r>
       <r>    0.1444    1.0000 </r>
       <r>    0.2389    1.0000 </r>
       <r>    0.7663    1.0000 </r>
       <r>    1.0293    1.0000 </r>
       <r>    1.0573    1.0000 </r>
       <r>    1.1633    1.0000 </r>
       <r>    1.6426    1.0000 </r>
       <r>    1.6642    1.0000 </r>
       <r>    1.8405    1.0000 </r>
       <r>    1.9584    1.0000 </r>
       <r>    2.1635    1.0000 </r>
       <r>    2.2343    1.0000 </r>
       <r>    2.4066    1.0000 </r>
       <r>    2.4402    1.0000 </r>
       <r>    2.5188    1.0000 </r>
       <r>    2.6266    1.0000 </r>
       <r>    2.8538    1.0000 </r>
       <r>    2.8561    1.0000 </r>
       <r>    2.9468    1.0000 </r>
       <r>   10.2837    0.0000 </r>
       <r>   11.1149    0.0000 </r>
       <r>   11.8728    0.0000 </r>
       <r>   12.4379    0.0000 </r>
       <r>   12.4542    0.0000 </r>
       <r>   12.9945    0.0000 </r>
       <r>   13.6166    0.0000 </r>
       <r>   13.6953    0.0000 </r>
       <r>   14.0142    0.0000 </r>
       <r>   14.0966    0.0000 </r>
       <r>   14.2203    0.0000 </r>
       <r>   14.7324    0.0000 </r>
       <r>   15.1558    0.0000 </r>
       <r>   15.1861    0.0000 </r>
       <r>   15.3631    0.0000 </r>
       <r>   15.5453    0.0000 </r>
       <r>   15.6768    0.0000 </r>
       <r>   15.7881    0.0000 </r>
       <r>   16.4204    0.0000 </r>
       <r>   16.9033    0.0000 </r>
      </set>
      <set comment="kpoint 10">
       <r>  -13.2935    1.0000 </r>
       <r>  -13.0024    1.0000 </r>
       <r>  -12.7731    1.0000 </r>
       <r>  -12.6194    1.0000 </r>
       <r>  -12.6122    1.0000 </r>
       <r>  -12.4510    1.0000 </r>
       <r>  -12.3673    1.0000 </r>
       <r>  -12.3666    1.0000 </r>
       <r>   -0.4484    1.0000 </r>
       <r>   -0.2292    1.0000 </r>
       <r>   -0.2187    1.0000 </r>
       <r>   -0.1564    1.0000 </r>
       <r>    0.0766    1.0000 </r>
       <r>    0.1448    1.0000 </r>
       <r>    0.2388    1.0000 </r>
       <r>    0.7675    1.0000 </r>
       <r>    1.0312    1.0000 </r>
       <r>    1.0566    1.0000 </r>
       <r>    1.1625    1.0000 </r>
       <r>    1.6427    1.0000 </r>
       <r>    1.6648    1.0000 </r>
       <r>    1.8408    1.0000 </r>
       <r>    1.9594    1.0000 </r>
       <r>    2.1640    1.0000 </r>
       <r>    2.2336    1.0000 </r>
       <r>    2.4054    1.0000 </r>
       <r>    2.4379    1.0000 </r>
       <r>    2.5188    1.0000 </r>
       <r>    2.6264    1.0000 </r>
       <r>    2.8540    1.0000 </r>
       <r>    2.8563    1.0000 </r>
       <r>    2.9466    1.0000 </r>
       <r>   10.2842    0.0000 </r>
       <r>   11.1136    0.0000 </r>
       <r>   11.8712    0.0000 </r>
       <r>   12.4392    0.0000 </r>
       <r>   12.4599    0.0000 </r>
       <r>   12.9891    0.0000 </r>
       <r>   13.6250    0.0000 </r>
       <r>   13.6899    0.0000 </r>
       <r>   13.9970    0.0000 </r>
       <r>   14.0937    0.0000 </r>
       <r>   14.2393    0.0000 </r>
       <r>   14.7358    0.0000 </r>
       <r>   15.1585    0.0000 </r>
       <r>   15.1695    0.0000 </r>
       <r>   15.3640    0.0000 </r>
       <r>   15.5603    0.0000 </r>
       <r>   15.6822    0.0000 </r>
       <r>   15.7796    0.0000 </r>
       <r>   16.4305    0.0000 </r>
       <r>   16.8870    0.0000 </r>
      </set>
      <set comment="kpoint 11">
       <r>  -13.2934    1.0000 </r>
       <r>  -13.0025    1.0000 </r>
       <r>  -12.7729    1.0000 </r>
       <r>  -12.6188    1.0000 </r>
       <r>  -12.6129    1.0000 </r>
       <r>  -12.4515    1.0000 </r>
       <r>  -12.3675    1.0000 </r>
       <r>  -12.3660    1.0000 </r>
       <r>   -0.4482    1.0000 </r>
       <r>   -0.2264    1.0000 </r>
       <r>   -0.2215    1.0000 </r>
       <r>   -0.1565    1.0000 </r>
       <r>    0.0775    1.0000 </r>
       <r>    0.1443    1.0000 </r>
       <r>    0.2387    1.0000 </r>
       <r>    0.7678    1.0000 </r>
       <r>    1.0296    1.0000 </r>
       <r>    1.0559    1.0000 </r>
       <r>    1.1635    1.0000 </r>
       <r>    1.6421    1.0000 </r>
       <r>    1.6651    1.0000 </r>
       <r>    1.8410    1.0000 </r>
       <r>    1.9578    1.0000 </r>
       <r>    2.1647    1.0000 </r>
       <r>    2.2346    1.0000 </r>
       <r>    2.4055    1.0000 </r>
       <r>    2.4382    1.0000 </r>
       <r>    2.5199    1.0000 </r>
       <r>    2.6253    1.0000 </r>
       <r>    2.8528    1.0000 </r>
       <r>    2.8573    1.0000 </r>
       <r>    2.9474    1.0000 </r>
       <r>   10.2840    0.0000 </r>
       <r>   11.1145    0.0000 </r>
       <r>   11.8720    0.0000 </r>
       <r>   12.4375    0.0000 </r>
       <r>   12.4582    0.0000 </r>
       <r>   12.9926    0.0000 </r>
       <r>   13.6170    0.0000 </r>
       <r>   13.6944    0.0000 </r>
       <r>   14.0104    0.0000 </r>
       <r>   14.0957    0.0000 </r>
       <r>   14.2246    0.0000 </r>
       <r>   14.7338    0.0000 </r>
       <r>   15.1565    0.0000 </r>
       <r>   15.1807    0.0000 </r>
       <r>   15.3641    0.0000 </r>
       <r>   15.5494    0.0000 </r>
       <r>   15.6787    0.0000 </r>
       <r>   15.7864    0.0000 </r>
       <r>   16.4238    0.0000 </r>
       <r>   16.8973    0.0000 </r>
      </set>
      <set comment="kpoint 12">
       <r>  -13.2935    1.0000 </r>
       <r>  -13.0022    1.0000 </r>
       <r>  -12.7732    1.0000 </r>
       <r>  -12.6204    1.0000 </r>
       <r>  -12.6113    1.0000 </r>
       <r>  -12.4513    1.0000 </r>
       <r>  -12.3678    1.0000 </r>
       <r>  -12.3657    1.0000 </r>
       <r>   -0.4473    1.0000 </r>
       <r>   -0.2254    1.0000 </r>
       <r>   -0.2221    1.0000 </r>
       <r>   -0.1573    1.0000 </r>
       <r>    0.0765    1.0000 </r>
       <r>    0.1440    1.0000 </r>
       <r>    0.2389    1.0000 </r>
       <r>    0.7664    1.0000 </r>
       <r>    1.0299    1.0000 </r>
       <r>    1.0575    1.0000 </r>
       <r>    1.1633    1.0000 </r>
       <r>    1.6427    1.0000 </r>
       <r>    1.6648    1.0000 </r>
       <r>    1.8404    1.0000 </r>
       <r>    1.9588    1.0000 </r>
       <r>    2.1646    1.0000 </r>
       <r>    2.2340    1.0000 </r>
       <r>    2.4063    1.0000 </r>
       <r>    2.4397    1.0000 </r>
       <r>    2.5182    1.0000 </r>
       <r>    2.6266    1.0000 </r>
       <r>    2.8535    1.0000 </r>
       <r>    2.8563    1.0000 </r>
       <r>    2.9463    1.0000 </r>
       <r>   10.2840    0.0000 </r>
       <r>   11.1138    0.0000 </r>
       <r>   11.8717    0.0000 </r>
       <r>   12.4394    0.0000 </r>
       <r>   12.4590    0.0000 </r>
       <r>   12.9913    0.0000 </r>
       <r>   13.6177    0.0000 </r>
       <r>   13.6915    0.0000 </r>
       <r>   14.0053    0.0000 </r>
       <r>   14.0954    0.0000 </r>
       <r>   14.2316    0.0000 </r>
       <r>   14.7346    0.0000 </r>
       <r>   15.1584    0.0000 </r>
       <r>   15.1755    0.0000 </r>
       <r>   15.3655    0.0000 </r>
       <r>   15.5535    0.0000 </r>
       <r>   15.6821    0.0000 </r>
       <r>   15.7804    0.0000 </r>
       <r>   16.4263    0.0000 </r>
       <r>   16.8916    0.0000 </r>
      </set>
      <set comment="kpoint 13">
       <r>  -13.2934    1.0000 </r>
       <r>  -13.0024    1.0000 </r>
       <r>  -12.7733    1.0000 </r>
       <r>  -12.6195    1.0000 </r>
       <r>  -12.6116    1.0000 </r>
       <r>  -12.4515    1.0000 </r>
       <r>  -12.3671    1.0000 </r>
       <r>  -12.3665    1.0000 </r>
       <r>   -0.4475    1.0000 </r>
       <r>   -0.2257    1.0000 </r>
       <r>   -0.2227    1.0000 </r>
       <r>   -0.1563    1.0000 </r>
       <r>    0.0768    1.0000 </r>
       <r>    0.1442    1.0000 </r>
       <r>    0.2389    1.0000 </r>
       <r>    0.7665    1.0000 </r>
       <r>    1.0293    1.0000 </r>
       <r>    1.0569    1.0000 </r>
       <r>    1.1637    1.0000 </r>
       <r>    1.6427    1.0000 </r>
       <r>    1.6649    1.0000 </r>
       <r>    1.8411    1.0000 </r>
       <r>    1.9592    1.0000 </r>
       <r>    2.1643    1.0000 </r>
       <r>    2.2337    1.0000 </r>
       <r>    2.4067    1.0000 </r>
       <r>    2.4384    1.0000 </r>
       <r>    2.5182    1.0000 </r>
       <r>    2.6261    1.0000 </r>
       <r>    2.8533    1.0000 </r>
       <r>    2.8566    1.0000 </r>
       <r>    2.9471    1.0000 </r>
       <r>   10.2838    0.0000 </r>
       <r>   11.1145    0.0000 </r>
       <r>   11.8708    0.0000 </r>
       <r>   12.4385    0.0000 </r>
       <r>   12.4566    0.0000 </r>
       <r>   12.9930    0.0000 </r>
       <r>   13.6193    0.0000 </r>
       <r>   13.6955    0.0000 </r>
       <r>   14.0076    0.0000 </r>
       <r>   14.0954    0.0000 </r>
       <r>   14.2273    0.0000 </r>
       <r>   14.7321    0.0000 </r>
       <r>   15.1568    0.0000 </r>
       <r>   15.1825    0.0000 </r>
       <r>   15.3605    0.0000 </r>
       <r>   15.5489    0.0000 </r>
       <r>   15.6786    0.0000 </r>
       <r>   15.7891    0.0000 </r>
       <r>   16.4246    0.0000 </r>
       <r>   16.8936    0.0000 </r>
      </set>
      <set comment="kpoint 14">
       <r>  -13.2934    1.0000 </r>
       <r>  -13.0024    1.0000 </r>
       <r>  -12.7733    1.0000 </r>
       <r>  -12.6189    1.0000 </r>
       <r>  -12.6125    1.0000 </r>
       <r>  -12.4513    1.0000 </r>
       <r>  -12.3673    1.0000 </r>
       <r>  -12.3664    1.0000 </r>
       <r>   -0.4473    1.0000 </r>
       <r>   -0.2269    1.0000 </r>
       <r>   -0.2209    1.0000 </r>
       <r>   -0.1567    1.0000 </r>
       <r>    0.0772    1.0000 </r>
       <r>    0.1441    1.0000 </r>
       <r>    0.2383    1.0000 </r>
       <r>    0.7666    1.0000 </r>
       <r>    1.0299    1.0000 </r>
       <r>    1.0558    1.0000 </r>
       <r>    1.1636    1.0000 </r>
       <r>    1.6414    1.0000 </r>
       <r>    1.6658    1.0000 </r>
       <r>    1.8410    1.0000 </r>
       <r>    1.9588    1.0000 </r>
       <r>    2.1647    1.0000 </r>
       <r>    2.2343    1.0000 </r>
       <r>    2.4069    1.0000 </r>
       <r>    2.4380    1.0000 </r>
       <r>    2.5187    1.0000 </r>
       <r>    2.6257    1.0000 </r>
       <r>    2.8535    1.0000 </r>
       <r>    2.8563    1.0000 </r>
       <r>    2.9477    1.0000 </r>
       <r>   10.2836    0.0000 </r>
       <r>   11.1149    0.0000 </r>
       <r>   11.8736    0.0000 </r>
       <r>   12.4357    0.0000 </r>
       <r>   12.4597    0.0000 </r>
       <r>   12.9893    0.0000 </r>
       <r>   13.6244    0.0000 </r>
       <r>   13.6887    0.0000 </r>
       <r>   14.0035    0.0000 </r>
       <r>   14.0928    0.0000 </r>
       <r>   14.2331    0.0000 </r>
       <r>   14.7351    0.0000 </r>
       <r>   15.1572    0.0000 </r>
       <r>   15.1740    0.0000 </r>
       <r>   15.3685    0.0000 </r>
       <r>   15.5585    0.0000 </r>
       <r>   15.6802    0.0000 </r>
       <r>   15.7770    0.0000 </r>
       <r>   16.4293    0.0000 </r>
       <r>   16.8959    0.0000 </r>
      </set>
      <set comment="kpoint 15">
       <r>  -13.2935    1.0000 </r>
       <r>  -13.0023    1.0000 </r>
       <r>  -12.7731    1.0000 </r>
       <r>  -12.6188    1.0000 </r>
       <r>  -12.6129    1.0000 </r>
       <r>  -12.4513    1.0000 </r>
       <r>  -12.3675    1.0000 </r>
       <r>  -12.3661    1.0000 </r>
       <r>   -0.4479    1.0000 </r>
       <r>   -0.2256    1.0000 </r>
       <r>   -0.2224    1.0000 </r>
       <r>   -0.1567    1.0000 </r>
       <r>    0.0773    1.0000 </r>
       <r>    0.1440    1.0000 </r>
       <r>    0.2386    1.0000 </r>
       <r>    0.7674    1.0000 </r>
       <r>    1.0302    1.0000 </r>
       <r>    1.0558    1.0000 </r>
       <r>    1.1633    1.0000 </r>
       <r>    1.6419    1.0000 </r>
       <r>    1.6656    1.0000 </r>
       <r>    1.8410    1.0000 </r>
       <r>    1.9580    1.0000 </r>
       <r>    2.1655    1.0000 </r>
       <r>    2.2343    1.0000 </r>
       <r>    2.4059    1.0000 </r>
       <r>    2.4381    1.0000 </r>
       <r>    2.5195    1.0000 </r>
       <r>    2.6252    1.0000 </r>
       <r>    2.8537    1.0000 </r>
       <r>    2.8567    1.0000 </r>
       <r>    2.9470    1.0000 </r>
       <r>   10.2839    0.0000 </r>
       <r>   11.1136    0.0000 </r>
       <r>   11.8728    0.0000 </r>
       <r>   12.4368    0.0000 </r>
       <r>   12.4595    0.0000 </r>
       <r>   12.9918    0.0000 </r>
       <r>   13.6184    0.0000 </r>
       <r>   13.6911    0.0000 </r>
       <r>   14.0069    0.0000 </r>
       <r>   14.0948    0.0000 </r>
       <r>   14.2319    0.0000 </r>
       <r>   14.7363    0.0000 </r>
       <r>   15.1551    0.0000 </r>
       <r>   15.1757    0.0000 </r>
       <r>   15.3648    0.0000 </r>
       <r>   15.5549    0.0000 </r>
       <r>   15.6815    0.0000 </r>
       <r>   15.7805    0.0000 </r>
       <r>   16.4250    0.0000 </r>
       <r>   16.9086    0.0000 </r>
      </set>
      <set comment="kpoint 16">
       <r>  -13.2936    1.0000 </r>
       <r>  -13.0022    1.0000 </r>
       <r>  -12.7732    1.0000 </r>
       <r>  -12.6194    1.0000 </r>
       <r>  -12.6122    1.0000 </r>
       <r>  -12.4513    1.0000 </r>
       <r>  -12.3669    1.0000 </r>
       <r>  -12.3666    1.0000 </r>
       <r>   -0.4476    1.0000 </r>
       <r>   -0.2283    1.0000 </r>
       <r>   -0.2200    1.0000 </r>
       <r>   -0.1568    1.0000 </r>
       <r>    0.0771    1.0000 </r>
       <r>    0.1436    1.0000 </r>
       <r>    0.2395    1.0000 </r>
       <r>    0.7665    1.0000 </r>
       <r>    1.0286    1.0000 </r>
       <r>    1.0569    1.0000 </r>
       <r>    1.1645    1.0000 </r>
       <r>    1.6431    1.0000 </r>
       <r>    1.6655    1.0000 </r>
       <r>    1.8414    1.0000 </r>
       <r>    1.9583    1.0000 </r>
       <r>    2.1652    1.0000 </r>
       <r>    2.2349    1.0000 </r>
       <r>    2.4040    1.0000 </r>
       <r>    2.4394    1.0000 </r>
       <r>    2.5182    1.0000 </r>
       <r>    2.6263    1.0000 </r>
       <r>    2.8533    1.0000 </r>
       <r>    2.8564    1.0000 </r>
       <r>    2.9465    1.0000 </r>
       <r>   10.2842    0.0000 </r>
       <r>   11.1131    0.0000 </r>
       <r>   11.8713    0.0000 </r>
       <r>   12.4400    0.0000 </r>
       <r>   12.4542    0.0000 </r>
       <r>   12.9953    0.0000 </r>
       <r>   13.6130    0.0000 </r>
       <r>   13.6998    0.0000 </r>
       <r>   14.0134    0.0000 </r>
       <r>   14.0987    0.0000 </r>
       <r>   14.2212    0.0000 </r>
       <r>   14.7295    0.0000 </r>
       <r>   15.1607    0.0000 </r>
       <r>   15.1862    0.0000 </r>
       <r>   15.3555    0.0000 </r>
       <r>   15.5417    0.0000 </r>
       <r>   15.6783    0.0000 </r>
       <r>   15.7960    0.0000 </r>
       <r>   16.4188    0.0000 </r>
       <r>   16.9118    0.0000 </r>
      </set>
     </set>
     <set comment="spin 2">
      <set comment="kpoint 1">
       <r>  -13.6482    1.0000 </r>
       <r>  -12.8090    1.0000 </r>
       <r>  -12.5910    1.0000 </r>
       <r>  -12.5710    1.0000 </r>
       <r>  -12.5690    1.0000 </r>
       <r>  -12.4015    1.0000 </r>
       <r>  -12.4005    1.0000 </r>
       <r>  -12.3986    1.0000 </r>
       <r>   -1.0536    1.0000 </r>
       <r>   -0.7856    1.0000 </r>
       <r>   -0.7837    1.0000 </r>
       <r>   -0.6088    1.0000 </r>
       <r>   -0.5693    1.0000 </r>
       <r>   -0.2716    1.0000 </r>
       <r>   -0.2709    1.0000 </r>
       <r>    1.4692    1.0000 </r>
       <r>    1.6636    1.0000 </r>
       <r>    1.6673    1.0000 </r>
       <r>    1.9767    1.0000 </r>
       <r>    2.0519    1.0000 </r>
       <r>    2.0528    1.0000 </r>
       <r>    2.2611    1.0000 </r>
       <r>    2.2645    1.0000 </r>
       <r>    2.2686    1.0000 </r>
       <r>    2.3666    1.0000 </r>
       <r>    2.4639    1.0000 </r>
       <r>    2.4655    1.0000 </r>
       <r>    2.7615    1.0000 </r>
       <r>    2.8472    1.0000 </r>
       <r>    2.8479    1.0000 </r>
       <r>    3.1762    1.0000 </r>
       <r>    3.1765    1.0000 </r>
       <r>    8.7755    0.0000 </r>
       <r>   10.8774    0.0000 </r>
       <r>   11.4541    0.0000 </r>
       <r>   11.7375    0.0000 </r>
       <r>   11.7459    0.0000 </r>
       <r>   12.6544    0.0000 </r>
       <r>   12.6874    0.0000 </r>
       <r>   12.6958    0.0000 </r>
       <r>   13.2332    0.0000 </r>
       <r>   13.2405    0.0000 </r>
       <r>   13.7515    0.0000 </r>
       <r>   15.3549    0.0000 </r>
       <r>   15.5778    0.0000 </r>
       <r>   15.5850    0.0000 </r>
       <r>   15.6049    0.0000 </r>
       <r>   16.1434    0.0000 </r>
       <r>   16.1835    0.0000 </r>
       <r>   16.1903    0.0000 </r>
       <r>   17.4356    0.0000 </r>
       <r>   17.4406    0.0000 </r>
      </set>
      <set comment="kpoint 2">
       <r>  -13.6482    1.0000 </r>
       <r>  -12.8089    1.0000 </r>
       <r>  -12.5916    1.0000 </r>
       <r>  -12.5707    1.0000 </r>
       <r>  -12.5689    1.0000 </r>
       <r>  -12.4021    1.0000 </r>
       <r>  -12.3999    1.0000 </r>
       <r>  -12.3984    1.0000 </r>
       <r>   -1.0536    1.0000 </r>
       <r>   -0.7858    1.0000 </r>
       <r>   -0.7839    1.0000 </r>
       <r>   -0.6088    1.0000 </r>
       <r>   -0.5689    1.0000 </r>
       <r>   -0.2719    1.0000 </r>
       <r>   -0.2708    1.0000 </r>
       <r>    1.4688    1.0000 </r>
       <r>    1.6650    1.0000 </r>
       <r>    1.6668    1.0000 </r>
       <r>    1.9764    1.0000 </r>
       <r>    2.0516    1.0000 </r>
       <r>    2.0533    1.0000 </r>
       <r>    2.2606    1.0000 </r>
       <r>    2.2640    1.0000 </r>
       <r>    2.2694    1.0000 </r>
       <r>    2.3671    1.0000 </r>
       <r>    2.4628    1.0000 </r>
       <r>    2.4670    1.0000 </r>
       <r>    2.7621    1.0000 </r>
       <r>    2.8467    1.0000 </r>
       <r>    2.8476    1.0000 </r>
       <r>    3.1756    1.0000 </r>
       <r>    3.1762    1.0000 </r>
       <r>    8.7755    0.0000 </r>
       <r>   10.8772    0.0000 </r>
       <r>   11.4538    0.0000 </r>
       <r>   11.7396    0.0000 </r>
       <r>   11.7442    0.0000 </r>
       <r>   12.6512    0.0000 </r>
       <r>   12.6876    0.0000 </r>
       <r>   12.6960    0.0000 </r>
       <r>   13.2358    0.0000 </r>
       <r>   13.2416    0.0000 </r>
       <r>   13.7517    0.0000 </r>
       <r>   15.3547    0.0000 </r>
       <r>   15.5789    0.0000 </r>
       <r>   15.5807    0.0000 </r>
       <r>   15.6049    0.0000 </r>
       <r>   16.1466    0.0000 </r>
       <r>   16.1857    0.0000 </r>
       <r>   16.1885    0.0000 </r>
       <r>   17.4359    0.0000 </r>
       <r>   17.4476    0.0000 </r>
      </set>
      <set comment="kpoint 3">
       <r>  -13.6482    1.0000 </r>
       <r>  -12.8090    1.0000 </r>
       <r>  -12.5905    1.0000 </r>
       <r>  -12.5713    1.0000 </r>
       <r>  -12.5692    1.0000 </r>
       <r>  -12.4012    1.0000 </r>
       <r>  -12.4006    1.0000 </r>
       <r>  -12.3987    1.0000 </r>
       <r>   -1.0540    1.0000 </r>
       <r>   -0.7851    1.0000 </r>
       <r>   -0.7838    1.0000 </r>
       <r>   -0.6094    1.0000 </r>
       <r>   -0.5689    1.0000 </r>
       <r>   -0.2718    1.0000 </r>
       <r>   -0.2707    1.0000 </r>
       <r>    1.4696    1.0000 </r>
       <r>    1.6649    1.0000 </r>
       <r>    1.6667    1.0000 </r>
       <r>    1.9776    1.0000 </r>
       <r>    2.0516    1.0000 </r>
       <r>    2.0527    1.0000 </r>
       <r>    2.2625    1.0000 </r>
       <r>    2.2647    1.0000 </r>
       <r>    2.2667    1.0000 </r>
       <r>    2.3669    1.0000 </r>
       <r>    2.4634    1.0000 </r>
       <r>    2.4643    1.0000 </r>
       <r>    2.7617    1.0000 </r>
       <r>    2.8474    1.0000 </r>
       <r>    2.8482    1.0000 </r>
       <r>    3.1758    1.0000 </r>
       <r>    3.1763    1.0000 </r>
       <r>    8.7756    0.0000 </r>
       <r>   10.8767    0.0000 </r>
       <r>   11.4550    0.0000 </r>
       <r>   11.7352    0.0000 </r>
       <r>   11.7470    0.0000 </r>
       <r>   12.6518    0.0000 </r>
       <r>   12.6837    0.0000 </r>
       <r>   12.7007    0.0000 </r>
       <r>   13.2359    0.0000 </r>
       <r>   13.2417    0.0000 </r>
       <r>   13.7518    0.0000 </r>
       <r>   15.3552    0.0000 </r>
       <r>   15.5773    0.0000 </r>
       <r>   15.5816    0.0000 </r>
       <r>   15.6035    0.0000 </r>
       <r>   16.1474    0.0000 </r>
       <r>   16.1853    0.0000 </r>
       <r>   16.1890    0.0000 </r>
       <r>   17.4349    0.0000 </r>
       <r>   17.4731    0.0000 </r>
      </set>
      <set comment="kpoint 4">
       <r>  -13.6482    1.0000 </r>
       <r>  -12.8091    1.0000 </r>
       <r>  -12.5892    1.0000 </r>
       <r>  -12.5714    1.0000 </r>
       <r>  -12.5705    1.0000 </r>
       <r>  -12.4012    1.0000 </r>
       <r>  -12.4000    1.0000 </r>
       <r>  -12.3993    1.0000 </r>
       <r>   -1.0542    1.0000 </r>
       <r>   -0.7846    1.0000 </r>
       <r>   -0.7839    1.0000 </r>
       <r>   -0.6090    1.0000 </r>
       <r>   -0.5695    1.0000 </r>
       <r>   -0.2714    1.0000 </r>
       <r>   -0.2709    1.0000 </r>
       <r>    1.4702    1.0000 </r>
       <r>    1.6648    1.0000 </r>
       <r>    1.6662    1.0000 </r>
       <r>    1.9782    1.0000 </r>
       <r>    2.0522    1.0000 </r>
       <r>    2.0527    1.0000 </r>
       <r>    2.2609    1.0000 </r>
       <r>    2.2631    1.0000 </r>
       <r>    2.2688    1.0000 </r>
       <r>    2.3668    1.0000 </r>
       <r>    2.4619    1.0000 </r>
       <r>    2.4650    1.0000 </r>
       <r>    2.7612    1.0000 </r>
       <r>    2.8475    1.0000 </r>
       <r>    2.8489    1.0000 </r>
       <r>    3.1757    1.0000 </r>
       <r>    3.1766    1.0000 </r>
       <r>    8.7757    0.0000 </r>
       <r>   10.8773    0.0000 </r>
       <r>   11.4548    0.0000 </r>
       <r>   11.7393    0.0000 </r>
       <r>   11.7431    0.0000 </r>
       <r>   12.6522    0.0000 </r>
       <r>   12.6896    0.0000 </r>
       <r>   12.6951    0.0000 </r>
       <r>   13.2335    0.0000 </r>
       <r>   13.2426    0.0000 </r>
       <r>   13.7517    0.0000 </r>
       <r>   15.3551    0.0000 </r>
       <r>   15.5793    0.0000 </r>
       <r>   15.5805    0.0000 </r>
       <r>   15.6039    0.0000 </r>
       <r>   16.1459    0.0000 </r>
       <r>   16.1851    0.0000 </r>
       <r>   16.1891    0.0000 </r>
       <r>   17.4368    0.0000 </r>
       <r>   17.4442    0.0000 </r>
      </set>
      <set comment="kpoint 5">
       <r>  -13.2935    1.0000 </r>
       <r>  -13.0021    1.0000 </r>
       <r>  -12.7735    1.0000 </r>
       <r>  -12.6207    1.0000 </r>
       <r>  -12.6108    1.0000 </r>
       <r>  -12.4514    1.0000 </r>
       <r>  -12.3681    1.0000 </r>
       <r>  -12.3655    1.0000 </r>
       <r>   -0.4473    1.0000 </r>
       <r>   -0.2260    1.0000 </r>
       <r>   -0.2210    1.0000 </r>
       <r>   -0.1580    1.0000 </r>
       <r>    0.0759    1.0000 </r>
       <r>    0.1447    1.0000 </r>
       <r>    0.2387    1.0000 </r>
       <r>    0.7662    1.0000 </r>
       <r>    1.0304    1.0000 </r>
       <r>    1.0574    1.0000 </r>
       <r>    1.1635    1.0000 </r>
       <r>    1.6423    1.0000 </r>
       <r>    1.6647    1.0000 </r>
       <r>    1.8405    1.0000 </r>
       <r>    1.9588    1.0000 </r>
       <r>    2.1633    1.0000 </r>
       <r>    2.2341    1.0000 </r>
       <r>    2.4071    1.0000 </r>
       <r>    2.4397    1.0000 </r>
       <r>    2.5180    1.0000 </r>
       <r>    2.6271    1.0000 </r>
       <r>    2.8533    1.0000 </r>
       <r>    2.8566    1.0000 </r>
       <r>    2.9461    1.0000 </r>
       <r>   10.2839    0.0000 </r>
       <r>   11.1131    0.0000 </r>
       <r>   11.8756    0.0000 </r>
       <r>   12.4361    0.0000 </r>
       <r>   12.4590    0.0000 </r>
       <r>   12.9893    0.0000 </r>
       <r>   13.6221    0.0000 </r>
       <r>   13.6894    0.0000 </r>
       <r>   14.0034    0.0000 </r>
       <r>   14.0934    0.0000 </r>
       <r>   14.2349    0.0000 </r>
       <r>   14.7357    0.0000 </r>
       <r>   15.1567    0.0000 </r>
       <r>   15.1724    0.0000 </r>
       <r>   15.3691    0.0000 </r>
       <r>   15.5589    0.0000 </r>
       <r>   15.6815    0.0000 </r>
       <r>   15.7766    0.0000 </r>
       <r>   16.4268    0.0000 </r>
       <r>   16.9094    0.0000 </r>
      </set>
      <set comment="kpoint 6">
       <r>  -13.2935    1.0000 </r>
       <r>  -13.0024    1.0000 </r>
       <r>  -12.7732    1.0000 </r>
       <r>  -12.6190    1.0000 </r>
       <r>  -12.6125    1.0000 </r>
       <r>  -12.4518    1.0000 </r>
       <r>  -12.3673    1.0000 </r>
       <r>  -12.3661    1.0000 </r>
       <r>   -0.4482    1.0000 </r>
       <r>   -0.2278    1.0000 </r>
       <r>   -0.2197    1.0000 </r>
       <r>   -0.1567    1.0000 </r>
       <r>    0.0771    1.0000 </r>
       <r>    0.1445    1.0000 </r>
       <r>    0.2389    1.0000 </r>
       <r>    0.7676    1.0000 </r>
       <r>    1.0291    1.0000 </r>
       <r>    1.0567    1.0000 </r>
       <r>    1.1638    1.0000 </r>
       <r>    1.6422    1.0000 </r>
       <r>    1.6647    1.0000 </r>
       <r>    1.8415    1.0000 </r>
       <r>    1.9578    1.0000 </r>
       <r>    2.1640    1.0000 </r>
       <r>    2.2343    1.0000 </r>
       <r>    2.4046    1.0000 </r>
       <r>    2.4394    1.0000 </r>
       <r>    2.5194    1.0000 </r>
       <r>    2.6257    1.0000 </r>
       <r>    2.8530    1.0000 </r>
       <r>    2.8574    1.0000 </r>
       <r>    2.9469    1.0000 </r>
       <r>   10.2845    0.0000 </r>
       <r>   11.1133    0.0000 </r>
       <r>   11.8748    0.0000 </r>
       <r>   12.4358    0.0000 </r>
       <r>   12.4549    0.0000 </r>
       <r>   12.9945    0.0000 </r>
       <r>   13.6165    0.0000 </r>
       <r>   13.6958    0.0000 </r>
       <r>   14.0143    0.0000 </r>
       <r>   14.0975    0.0000 </r>
       <r>   14.2233    0.0000 </r>
       <r>   14.7331    0.0000 </r>
       <r>   15.1562    0.0000 </r>
       <r>   15.1822    0.0000 </r>
       <r>   15.3606    0.0000 </r>
       <r>   15.5461    0.0000 </r>
       <r>   15.6780    0.0000 </r>
       <r>   15.7899    0.0000 </r>
       <r>   16.4191    0.0000 </r>
       <r>   16.9011    0.0000 </r>
      </set>
      <set comment="kpoint 7">
       <r>  -13.2936    1.0000 </r>
       <r>  -13.0022    1.0000 </r>
       <r>  -12.7735    1.0000 </r>
       <r>  -12.6195    1.0000 </r>
       <r>  -12.6117    1.0000 </r>
       <r>  -12.4516    1.0000 </r>
       <r>  -12.3671    1.0000 </r>
       <r>  -12.3665    1.0000 </r>
       <r>   -0.4481    1.0000 </r>
       <r>   -0.2258    1.0000 </r>
       <r>   -0.2227    1.0000 </r>
       <r>   -0.1564    1.0000 </r>
       <r>    0.0766    1.0000 </r>
       <r>    0.1446    1.0000 </r>
       <r>    0.2392    1.0000 </r>
       <r>    0.7670    1.0000 </r>
       <r>    1.0301    1.0000 </r>
       <r>    1.0571    1.0000 </r>
       <r>    1.1635    1.0000 </r>
       <r>    1.6429    1.0000 </r>
       <r>    1.6646    1.0000 </r>
       <r>    1.8413    1.0000 </r>
       <r>    1.9591    1.0000 </r>
       <r>    2.1640    1.0000 </r>
       <r>    2.2334    1.0000 </r>
       <r>    2.4060    1.0000 </r>
       <r>    2.4380    1.0000 </r>
       <r>    2.5183    1.0000 </r>
       <r>    2.6265    1.0000 </r>
       <r>    2.8534    1.0000 </r>
       <r>    2.8569    1.0000 </r>
       <r>    2.9465    1.0000 </r>
       <r>   10.2843    0.0000 </r>
       <r>   11.1121    0.0000 </r>
       <r>   11.8735    0.0000 </r>
       <r>   12.4371    0.0000 </r>
       <r>   12.4575    0.0000 </r>
       <r>   12.9918    0.0000 </r>
       <r>   13.6207    0.0000 </r>
       <r>   13.6947    0.0000 </r>
       <r>   14.0050    0.0000 </r>
       <r>   14.0955    0.0000 </r>
       <r>   14.2325    0.0000 </r>
       <r>   14.7337    0.0000 </r>
       <r>   15.1566    0.0000 </r>
       <r>   15.1768    0.0000 </r>
       <r>   15.3602    0.0000 </r>
       <r>   15.5530    0.0000 </r>
       <r>   15.6804    0.0000 </r>
       <r>   15.7876    0.0000 </r>
       <r>   16.4241    0.0000 </r>
       <r>   16.8995    0.0000 </r>
      </set>
      <set comment="kpoint 8">
       <r>  -13.2935    1.0000 </r>
       <r>  -13.0024    1.0000 </r>
       <r>  -12.7730    1.0000 </r>
       <r>  -12.6204    1.0000 </r>
       <r>  -12.6113    1.0000 </r>
       <r>  -12.4516    1.0000 </r>
       <r>  -12.3678    1.0000 </r>
       <r>  -12.3657    1.0000 </r>
       <r>   -0.4478    1.0000 </r>
       <r>   -0.2261    1.0000 </r>
       <r>   -0.2212    1.0000 </r>
       <r>   -0.1578    1.0000 </r>
       <r>    0.0769    1.0000 </r>
       <r>    0.1444    1.0000 </r>
       <r>    0.2393    1.0000 </r>
       <r>    0.7670    1.0000 </r>
       <r>    1.0302    1.0000 </r>
       <r>    1.0572    1.0000 </r>
       <r>    1.1629    1.0000 </r>
       <r>    1.6429    1.0000 </r>
       <r>    1.6640    1.0000 </r>
       <r>    1.8404    1.0000 </r>
       <r>    1.9585    1.0000 </r>
       <r>    2.1642    1.0000 </r>
       <r>    2.2340    1.0000 </r>
       <r>    2.4057    1.0000 </r>
       <r>    2.4391    1.0000 </r>
       <r>    2.5191    1.0000 </r>
       <r>    2.6269    1.0000 </r>
       <r>    2.8538    1.0000 </r>
       <r>    2.8560    1.0000 </r>
       <r>    2.9465    1.0000 </r>
       <r>   10.2842    0.0000 </r>
       <r>   11.1134    0.0000 </r>
       <r>   11.8720    0.0000 </r>
       <r>   12.4397    0.0000 </r>
       <r>   12.4564    0.0000 </r>
       <r>   12.9928    0.0000 </r>
       <r>   13.6160    0.0000 </r>
       <r>   13.6958    0.0000 </r>
       <r>   14.0097    0.0000 </r>
       <r>   14.0979    0.0000 </r>
       <r>   14.2248    0.0000 </r>
       <r>   14.7333    0.0000 </r>
       <r>   15.1554    0.0000 </r>
       <r>   15.1830    0.0000 </r>
       <r>   15.3625    0.0000 </r>
       <r>   15.5492    0.0000 </r>
       <r>   15.6786    0.0000 </r>
       <r>   15.7874    0.0000 </r>
       <r>   16.4228    0.0000 </r>
       <r>   16.9084    0.0000 </r>
      </set>
      <set comment="kpoint 9">
       <r>  -13.2934    1.0000 </r>
       <r>  -13.0025    1.0000 </r>
       <r>  -12.7731    1.0000 </r>
       <r>  -12.6207    1.0000 </r>
       <r>  -12.6108    1.0000 </r>
       <r>  -12.4518    1.0000 </r>
       <r>  -12.3679    1.0000 </r>
       <r>  -12.3655    1.0000 </r>
       <r>   -0.4473    1.0000 </r>
       <r>   -0.2272    1.0000 </r>
       <r>   -0.2192    1.0000 </r>
       <r>   -0.1584    1.0000 </r>
       <r>    0.0765    1.0000 </r>
       <r>    0.1444    1.0000 </r>
       <r>    0.2389    1.0000 </r>
       <r>    0.7663    1.0000 </r>
       <r>    1.0292    1.0000 </r>
       <r>    1.0573    1.0000 </r>
       <r>    1.1633    1.0000 </r>
       <r>    1.6426    1.0000 </r>
       <r>    1.6642    1.0000 </r>
       <r>    1.8405    1.0000 </r>
       <r>    1.9583    1.0000 </r>
       <r>    2.1635    1.0000 </r>
       <r>    2.2343    1.0000 </r>
       <r>    2.4066    1.0000 </r>
       <r>    2.4402    1.0000 </r>
       <r>    2.5188    1.0000 </r>
       <r>    2.6266    1.0000 </r>
       <r>    2.8538    1.0000 </r>
       <r>    2.8561    1.0000 </r>
       <r>    2.9467    1.0000 </r>
       <r>   10.2837    0.0000 </r>
       <r>   11.1149    0.0000 </r>
       <r>   11.8728    0.0000 </r>
       <r>   12.4379    0.0000 </r>
       <r>   12.4543    0.0000 </r>
       <r>   12.9945    0.0000 </r>
       <r>   13.6166    0.0000 </r>
       <r>   13.6953    0.0000 </r>
       <r>   14.0142    0.0000 </r>
       <r>   14.0967    0.0000 </r>
       <r>   14.2204    0.0000 </r>
       <r>   14.7325    0.0000 </r>
       <r>   15.1558    0.0000 </r>
       <r>   15.1861    0.0000 </r>
       <r>   15.3632    0.0000 </r>
       <r>   15.5453    0.0000 </r>
       <r>   15.6768    0.0000 </r>
       <r>   15.7881    0.0000 </r>
       <r>   16.4204    0.0000 </r>
       <r>   16.9128    0.0000 </r>
      </set>
      <set comment="kpoint 10">
       <r>  -13.2935    1.0000 </r>
       <r>  -13.0024    1.0000 </r>
       <r>  -12.7731    1.0000 </r>
       <r>  -12.6194    1.0000 </r>
       <r>  -12.6122    1.0000 </r>
       <r>  -12.4510    1.0000 </r>
       <r>  -12.3673    1.0000 </r>
       <r>  -12.3666    1.0000 </r>
       <r>   -0.4484    1.0000 </r>
       <r>   -0.2292    1.0000 </r>
       <r>   -0.2187    1.0000 </r>
       <r>   -0.1564    1.0000 </r>
       <r>    0.0766    1.0000 </r>
       <r>    0.1448    1.0000 </r>
       <r>    0.2388    1.0000 </r>
       <r>    0.7675    1.0000 </r>
       <r>    1.0312    1.0000 </r>
       <r>    1.0566    1.0000 </r>
       <r>    1.1625    1.0000 </r>
       <r>    1.6427    1.0000 </r>
       <r>    1.6648    1.0000 </r>
       <r>    1.8408    1.0000 </r>
       <r>    1.9594    1.0000 </r>
       <r>    2.1640    1.0000 </r>
       <r>    2.2336    1.0000 </r>
       <r>    2.4054    1.0000 </r>
       <r>    2.4379    1.0000 </r>
       <r>    2.5188    1.0000 </r>
       <r>    2.6264    1.0000 </r>
       <r>    2.8540    1.0000 </r>
       <r>    2.8563    1.0000 </r>
       <r>    2.9465    1.0000 </r>
       <r>   10.2843    0.0000 </r>
       <r>   11.1136    0.0000 </r>
       <r>   11.8712    0.0000 </r>
       <r>   12.4392    0.0000 </r>
       <r>   12.4599    0.0000 </r>
       <r>   12.9892    0.0000 </r>
       <r>   13.6250    0.0000 </r>
       <r>   13.6899    0.0000 </r>
       <r>   13.9970    0.0000 </r>
       <r>   14.0937    0.0000 </r>
       <r>   14.2394    0.0000 </r>
       <r>   14.7358    0.0000 </r>
       <r>   15.1586    0.0000 </r>
       <r>   15.1695    0.0000 </r>
       <r>   15.3640    0.0000 </r>
       <r>   15.5604    0.0000 </r>
       <r>   15.6822    0.0000 </r>
       <r>   15.7797    0.0000 </r>
       <r>   16.4305    0.0000 </r>
       <r>   16.8957    0.0000 </r>
      </set>
      <set comment="kpoint 11">
       <r>  -13.2935    1.0000 </r>
       <r>  -13.0025    1.0000 </r>
       <r>  -12.7729    1.0000 </r>
       <r>  -12.6189    1.0000 </r>
       <r>  -12.6129    1.0000 </r>
       <r>  -12.4515    1.0000 </r>
       <r>  -12.3675    1.0000 </r>
       <r>  -12.3660    1.0000 </r>
       <r>   -0.4482    1.0000 </r>
       <r>   -0.2264    1.0000 </r>
       <r>   -0.2215    1.0000 </r>
       <r>   -0.1565    1.0000 </r>
       <r>    0.0775    1.0000 </r>
       <r>    0.1443    1.0000 </r>
       <r>    0.2387    1.0000 </r>
       <r>    0.7678    1.0000 </r>
       <r>    1.0296    1.0000 </r>
       <r>    1.0559    1.0000 </r>
       <r>    1.1635    1.0000 </r>
       <r>    1.6421    1.0000 </r>
       <r>    1.6651    1.0000 </r>
       <r>    1.8409    1.0000 </r>
       <r>    1.9578    1.0000 </r>
       <r>    2.1647    1.0000 </r>
       <r>    2.2346    1.0000 </r>
       <r>    2.4054    1.0000 </r>
       <r>    2.4382    1.0000 </r>
       <r>    2.5199    1.0000 </r>
       <r>    2.6253    1.0000 </r>
       <r>    2.8527    1.0000 </r>
       <r>    2.8572    1.0000 </r>
       <r>    2.9473    1.0000 </r>
       <r>   10.2841    0.0000 </r>
       <r>   11.1146    0.0000 </r>
       <r>   11.8720    0.0000 </r>
       <r>   12.4375    0.0000 </r>
       <r>   12.4582    0.0000 </r>
       <r>   12.9927    0.0000 </r>
       <r>   13.6170    0.0000 </r>
       <r>   13.6944    0.0000 </r>
       <r>   14.0104    0.0000 </r>
       <r>   14.0958    0.0000 </r>
       <r>   14.2246    0.0000 </r>
       <r>   14.7338    0.0000 </r>
       <r>   15.1566    0.0000 </r>
       <r>   15.1807    0.0000 </r>
       <r>   15.3641    0.0000 </r>
       <r>   15.5495    0.0000 </r>
       <r>   15.6788    0.0000 </r>
       <r>   15.7864    0.0000 </r>
       <r>   16.4238    0.0000 </r>
       <r>   16.9141    0.0000 </r>
      </set>
      <set comment="kpoint 12">
       <r>  -13.2935    1.0000 </r>
       <r>  -13.0022    1.0000 </r>
       <r>  -12.7732    1.0000 </r>
       <r>  -12.6205    1.0000 </r>
       <r>  -12.6113    1.0000 </r>
       <r>  -12.4513    1.0000 </r>
       <r>  -12.3679    1.0000 </r>
       <r>  -12.3657    1.0000 </r>
       <r>   -0.4473    1.0000 </r>
       <r>   -0.2254    1.0000 </r>
       <r>   -0.2221    1.0000 </r>
       <r>   -0.1573    1.0000 </r>
       <r>    0.0765    1.0000 </r>
       <r>    0.1440    1.0000 </r>
       <r>    0.2389    1.0000 </r>
       <r>    0.7664    1.0000 </r>
       <r>    1.0299    1.0000 </r>
       <r>    1.0575    1.0000 </r>
       <r>    1.1632    1.0000 </r>
       <r>    1.6427    1.0000 </r>
       <r>    1.6648    1.0000 </r>
       <r>    1.8403    1.0000 </r>
       <r>    1.9588    1.0000 </r>
       <r>    2.1645    1.0000 </r>
       <r>    2.2340    1.0000 </r>
[...]
        <r>  0.0087  0.0021  0.0021  0.0018  0.0012  0.0005  0.0002  0.0004  0.0000 </r>
        <r>  0.0048  0.0041  0.0020  0.0019  0.0039  0.0005  0.0001  0.0010  0.0000 </r>
        <r>  0.0045  0.0019  0.0018  0.0041  0.0039  0.0010  0.0001  0.0005  0.0000 </r>
        <r>  0.0021  0.0266  0.0005  0.0151  0.0000  0.0000  0.0000  0.0000  0.0000 </r>
        <r>  0.0021  0.0160  0.0005  0.0251  0.0000  0.0000  0.0000  0.0000  0.0000 </r>
        <r>  0.0034  0.0236  0.0272  0.0233  0.0000  0.0000  0.0000  0.0000  0.0000 </r>
        <r>  0.0038  0.0004  0.0105  0.0003  0.0000  0.0000  0.0000  0.0000  0.0000 </r>
        <r>  0.0040  0.0108  0.0044  0.0106  0.0000  0.0000  0.0000  0.0000  0.0000 </r>
        <r>  0.0001  0.0038  0.0072  0.0035  0.0000  0.0000  0.0000  0.0000  0.0000 </r>
        <r>  0.0018  0.0001  0.0050  0.0004  0.0000  0.0000  0.0000  0.0000  0.0000 </r>
        <r>  0.0020  0.0004  0.0055  0.0002  0.0000  0.0000  0.0000  0.0000  0.0000 </r>
       </set>
       <set comment="band 42">
        <r>  0.0153  0.0005  0.0090  0.0004  0.0009  0.0006  0.0104  0.0006  0.0000 </r>
        <r>  0.0025  0.0006  0.0010  0.0026  0.0153  0.0020  0.0003  0.0016  0.0003 </r>
        <r>  0.0027  0.0026  0.0009  0.0005  0.0152  0.0013  0.0003  0.0021  0.0003 </r>
        <r>  0.0083  0.0002  0.0007  0.0003  0.0141  0.0007  0.0008  0.0007  0.0000 </r>
        <r>  0.0087  0.0019  0.0012  0.0020  0.0123  0.0003  0.0000  0.0003  0.0000 </r>
        <r>  0.0044  0.0004  0.0016  0.0004  0.0114  0.0013  0.0001  0.0012  0.0000 </r>
        <r>  0.0002  0.0028  0.0009  0.0032  0.0094  0.0000  0.0003  0.0001  0.0000 </r>
        <r>  0.0005  0.0040  0.0003  0.0008  0.0101  0.0004  0.0002  0.0003  0.0000 </r>
        <r>  0.0007  0.0007  0.0004  0.0038  0.0100  0.0003  0.0001  0.0005  0.0000 </r>
        <r>  0.0013  0.0031  0.0002  0.0063  0.0000  0.0000  0.0000  0.0000  0.0000 </r>
        <r>  0.0014  0.0063  0.0001  0.0034  0.0000  0.0000  0.0000  0.0000  0.0000 </r>
        <r>  0.0002  0.0001  0.0137  0.0001  0.0000  0.0000  0.0000  0.0000  0.0000 </r>
        <r>  0.0035  0.0012  0.0002  0.0009  0.0000  0.0000  0.0000  0.0000  0.0000 </r>
        <r>  0.0052  0.0133  0.0031  0.0130  0.0000  0.0000  0.0000  0.0000  0.0000 </r>
        <r>  0.0015  0.0080  0.0031  0.0080  0.0000  0.0000  0.0000  0.0000  0.0000 </r>
        <r>  0.0037  0.0011  0.0012  0.0162  0.0000  0.0000  0.0000  0.0000  0.0000 </r>
        <r>  0.0038  0.0154  0.0010  0.0013  0.0000  0.0000  0.0000  0.0000  0.0000 </r>
       </set>
       <set comment="band 43">
        <r>  0.0000  0.0040  0.0000  0.0039  0.0000  0.0050  0.0000  0.0052  0.0137 </r>
        <r>  0.0212  0.0031  0.0005  0.0037  0.0002  0.0047  0.0002  0.0095  0.0003 </r>
        <r>  0.0215  0.0038  0.0005  0.0034  0.0004  0.0098  0.0003  0.0046  0.0003 </r>
        <r>  0.0000  0.0034  0.0000  0.0032  0.0000  0.0070  0.0000  0.0073  0.0010 </r>
        <r>  0.0000  0.0016  0.0000  0.0016  0.0000  0.0055  0.0000  0.0054  0.0004 </r>
        <r>  0.0000  0.0065  0.0000  0.0065  0.0000  0.0012  0.0000  0.0014  0.0027 </r>
        <r>  0.0000  0.0047  0.0000  0.0045  0.0000  0.0008  0.0000  0.0008  0.0001 </r>
        <r>  0.0057  0.0001  0.0036  0.0005  0.0000  0.0021  0.0002  0.0021  0.0000 </r>
        <r>  0.0058  0.0005  0.0039  0.0001  0.0001  0.0020  0.0002  0.0021  0.0000 </r>
        <r>  0.0033  0.0093  0.0208  0.0098  0.0000  0.0000  0.0000  0.0000  0.0000 </r>
        <r>  0.0032  0.0091  0.0214  0.0098  0.0000  0.0000  0.0000  0.0000  0.0000 </r>
        <r>  0.0000  0.0094  0.0000  0.0099  0.0000  0.0000  0.0000  0.0000  0.0000 </r>
        <r>  0.0000  0.0101  0.0000  0.0103  0.0000  0.0000  0.0000  0.0000  0.0000 </r>
        <r>  0.0000  0.0086  0.0000  0.0087  0.0000  0.0000  0.0000  0.0000  0.0000 </r>
        <r>  0.0000  0.0029  0.0000  0.0030  0.0000  0.0000  0.0000  0.0000  0.0000 </r>
        <r>  0.0001  0.0149  0.0079  0.0124  0.0000  0.0000  0.0000  0.0000  0.0000 </r>
        <r>  0.0000  0.0132  0.0078  0.0145  0.0000  0.0000  0.0000  0.0000  0.0000 </r>
       </set>
       <set comment="band 44">
        <r>  0.0195  0.0032  0.0223  0.0031  0.0237  0.0021  0.0065  0.0022  0.0000 </r>
        <r>  0.0043  0.0019  0.0010  0.0052  0.0048  0.0027  0.0000  0.0090  0.0000 </r>
        <r>  0.0040  0.0051  0.0009  0.0018  0.0048  0.0089  0.0000  0.0028  0.0000 </r>
        <r>  0.0112  0.0005  0.0090  0.0005  0.0019  0.0064  0.0013  0.0065  0.0000 </r>
        <r>  0.0225  0.0002  0.0004  0.0002  0.0009  0.0007  0.0001  0.0008  0.0000 </r>
        <r>  0.0070  0.0021  0.0016  0.0020  0.0054  0.0019  0.0006  0.0019  0.0000 </r>
        <r>  0.0089  0.0004  0.0094  0.0005  0.0020  0.0027  0.0001  0.0028  0.0000 </r>
        <r>  0.0073  0.0048  0.0036  0.0003  0.0026  0.0026  0.0001  0.0000  0.0001 </r>
        <r>  0.0073  0.0003  0.0036  0.0048  0.0026  0.0000  0.0001  0.0027  0.0001 </r>
        <r>  0.0014  0.0014  0.0063  0.0077  0.0000  0.0000  0.0000  0.0000  0.0000 </r>
        <r>  0.0013  0.0077  0.0063  0.0014  0.0000  0.0000  0.0000  0.0000  0.0000 </r>
        <r>  0.0000  0.0036  0.0114  0.0036  0.0000  0.0000  0.0000  0.0000  0.0000 </r>
        <r>  0.0050  0.0004  0.0034  0.0004  0.0000  0.0000  0.0000  0.0000  0.0000 </r>
        <r>  0.0018  0.0240  0.0415  0.0245  0.0000  0.0000  0.0000  0.0000  0.0000 </r>
        <r>  0.0014  0.0020  0.0032  0.0021  0.0000  0.0000  0.0000  0.0000  0.0000 </r>
        <r>  0.0018  0.0021  0.0000  0.0084  0.0000  0.0000  0.0000  0.0000  0.0000 </r>
        <r>  0.0018  0.0083  0.0000  0.0022  0.0000  0.0000  0.0000  0.0000  0.0000 </r>
       </set>
       <set comment="band 45">
        <r>  0.0024  0.0010  0.0150  0.0011  0.0048  0.0021  0.0001  0.0018  0.0002 </r>
        <r>  0.0062  0.0006  0.0090  0.0002  0.0002  0.0003  0.0022  0.0004  0.0006 </r>
        <r>  0.0050  0.0002  0.0110  0.0011  0.0003  0.0007  0.0028  0.0003  0.0012 </r>
        <r>  0.0025  0.0023  0.0086  0.0034  0.0013  0.0006  0.0019  0.0005  0.0000 </r>
        <r>  0.0053  0.0015  0.0108  0.0019  0.0018  0.0020  0.0000  0.0027  0.0000 </r>
        <r>  0.0020  0.0004  0.0025  0.0007  0.0029  0.0021  0.0001  0.0021  0.0000 </r>
        <r>  0.0081  0.0000  0.0007  0.0000  0.0054  0.0101  0.0002  0.0068  0.0000 </r>
        <r>  0.0121  0.0043  0.0004  0.0035  0.0031  0.0049  0.0001  0.0049  0.0000 </r>
        <r>  0.0058  0.0037  0.0000  0.0044  0.0040  0.0058  0.0001  0.0041  0.0000 </r>
        <r>  0.0001  0.0001  0.0170  0.0035  0.0000  0.0000  0.0000  0.0000  0.0000 </r>
        <r>  0.0000  0.0032  0.0099  0.0000  0.0000  0.0000  0.0000  0.0000  0.0000 </r>
        <r>  0.0028  0.0026  0.0141  0.0026  0.0000  0.0000  0.0000  0.0000  0.0000 </r>
        <r>  0.0018  0.0179  0.0102  0.0130  0.0000  0.0000  0.0000  0.0000  0.0000 </r>
        <r>  0.0004  0.0018  0.0024  0.0001  0.0000  0.0000  0.0000  0.0000  0.0000 </r>
        <r>  0.0030  0.0122  0.0191  0.0177  0.0000  0.0000  0.0000  0.0000  0.0000 </r>
        <r>  0.0003  0.0057  0.0097  0.0039  0.0000  0.0000  0.0000  0.0000  0.0000 </r>
        <r>  0.0001  0.0033  0.0195  0.0075  0.0000  0.0000  0.0000  0.0000  0.0000 </r>
       </set>
       <set comment="band 46">
        <r>  0.0000  0.0002  0.0002  0.0000  0.0001  0.0001  0.0000  0.0004  0.0106 </r>
        <r>  0.0021  0.0028  0.0034  0.0030  0.0004  0.0012  0.0011  0.0013  0.0017 </r>
        <r>  0.0033  0.0031  0.0013  0.0023  0.0003  0.0010  0.0005  0.0012  0.0012 </r>
        <r>  0.0000  0.0021  0.0001  0.0012  0.0000  0.0015  0.0000  0.0015  0.0006 </r>
        <r>  0.0001  0.0011  0.0001  0.0008  0.0000  0.0016  0.0000  0.0009  0.0000 </r>
        <r>  0.0000  0.0009  0.0000  0.0006  0.0000  0.0123  0.0000  0.0125  0.0001 </r>
        <r>  0.0001  0.0001  0.0000  0.0001  0.0001  0.0080  0.0000  0.0112  0.0003 </r>
        <r>  0.0206  0.0005  0.0066  0.0005  0.0014  0.0008  0.0000  0.0020  0.0000 </r>
        <r>  0.0270  0.0003  0.0070  0.0005  0.0006  0.0010  0.0000  0.0016  0.0000 </r>
        <r>  0.0021  0.0022  0.0156  0.0017  0.0000  0.0000  0.0000  0.0000  0.0000 </r>
        <r>  0.0021  0.0021  0.0226  0.0024  0.0000  0.0000  0.0000  0.0000  0.0000 </r>
        <r>  0.0000  0.0125  0.0002  0.0123  0.0000  0.0000  0.0000  0.0000  0.0000 </r>
        <r>  0.0000  0.0073  0.0002  0.0117  0.0000  0.0000  0.0000  0.0000  0.0000 </r>
        <r>  0.0000  0.0286  0.0000  0.0300  0.0000  0.0000  0.0000  0.0000  0.0000 </r>
        <r>  0.0000  0.0299  0.0002  0.0243  0.0000  0.0000  0.0000  0.0000  0.0000 </r>
        <r>  0.0009  0.0022  0.0405  0.0018  0.0000  0.0000  0.0000  0.0000  0.0000 </r>
        <r>  0.0011  0.0022  0.0300  0.0009  0.0000  0.0000  0.0000  0.0000  0.0000 </r>
       </set>
       <set comment="band 47">
        <r>  0.0008  0.0020  0.0004  0.0020  0.0015  0.0007  0.0070  0.0006  0.0000 </r>
        <r>  0.0011  0.0039  0.0037  0.0012  0.0013  0.0001  0.0018  0.0001  0.0007 </r>
        <r>  0.0012  0.0012  0.0036  0.0039  0.0013  0.0001  0.0018  0.0000  0.0006 </r>
        <r>  0.0011  0.0062  0.0028  0.0060  0.0008  0.0000  0.0039  0.0001  0.0000 </r>
        <r>  0.0035  0.0033  0.0003  0.0032  0.0005  0.0037  0.0001  0.0039  0.0000 </r>
        <r>  0.0011  0.0029  0.0024  0.0030  0.0031  0.0025  0.0012  0.0024  0.0000 </r>
        <r>  0.0069  0.0030  0.0109  0.0029  0.0001  0.0005  0.0000  0.0006  0.0000 </r>
        <r>  0.0002  0.0024  0.0019  0.0014  0.0006  0.0098  0.0000  0.0046  0.0002 </r>
        <r>  0.0002  0.0013  0.0018  0.0026  0.0006  0.0047  0.0000  0.0097  0.0002 </r>
        <r>  0.0003  0.0228  0.0109  0.0107  0.0000  0.0000  0.0000  0.0000  0.0000 </r>
        <r>  0.0003  0.0109  0.0107  0.0223  0.0000  0.0000  0.0000  0.0000  0.0000 </r>
        <r>  0.0018  0.0054  0.0011  0.0058  0.0000  0.0000  0.0000  0.0000  0.0000 </r>
        <r>  0.0023  0.0039  0.0282  0.0038  0.0000  0.0000  0.0000  0.0000  0.0000 </r>
        <r>  0.0013  0.0083  0.0281  0.0086  0.0000  0.0000  0.0000  0.0000  0.0000 </r>
        <r>  0.0010  0.0077  0.0022  0.0078  0.0000  0.0000  0.0000  0.0000  0.0000 </r>
        <r>  0.0002  0.0129  0.0087  0.0170  0.0000  0.0000  0.0000  0.0000  0.0000 </r>
        <r>  0.0002  0.0171  0.0090  0.0127  0.0000  0.0000  0.0000  0.0000  0.0000 </r>
       </set>
       <set comment="band 48">
        <r>  0.0000  0.0013  0.0000  0.0013  0.0000  0.0028  0.0000  0.0028  0.0070 </r>
        <r>  0.0089  0.0091  0.0031  0.0066  0.0015  0.0003  0.0014  0.0002  0.0014 </r>
        <r>  0.0087  0.0067  0.0031  0.0087  0.0015  0.0002  0.0014  0.0004  0.0014 </r>
        <r>  0.0000  0.0023  0.0000  0.0022  0.0000  0.0096  0.0000  0.0097  0.0010 </r>
        <r>  0.0000  0.0004  0.0000  0.0004  0.0000  0.0065  0.0000  0.0065  0.0003 </r>
        <r>  0.0000  0.0061  0.0000  0.0062  0.0000  0.0017  0.0000  0.0017  0.0029 </r>
        <r>  0.0000  0.0054  0.0000  0.0054  0.0000  0.0008  0.0000  0.0007  0.0001 </r>
        <r>  0.0138  0.0061  0.0007  0.0059  0.0001  0.0013  0.0003  0.0010  0.0000 </r>
        <r>  0.0136  0.0057  0.0006  0.0063  0.0000  0.0011  0.0003  0.0011  0.0000 </r>
        <r>  0.0015  0.0092  0.0039  0.0092  0.0000  0.0000  0.0000  0.0000  0.0000 </r>
        <r>  0.0015  0.0096  0.0042  0.0095  0.0000  0.0000  0.0000  0.0000  0.0000 </r>
        <r>  0.0000  0.0217  0.0000  0.0215  0.0000  0.0000  0.0000  0.0000  0.0000 </r>
        <r>  0.0000  0.0223  0.0000  0.0231  0.0000  0.0000  0.0000  0.0000  0.0000 </r>
        <r>  0.0000  0.0088  0.0000  0.0087  0.0000  0.0000  0.0000  0.0000  0.0000 </r>
        <r>  0.0000  0.0098  0.0000  0.0100  0.0000  0.0000  0.0000  0.0000  0.0000 </r>
        <r>  0.0012  0.0094  0.0147  0.0079  0.0000  0.0000  0.0000  0.0000  0.0000 </r>
        <r>  0.0013  0.0086  0.0153  0.0099  0.0000  0.0000  0.0000  0.0000  0.0000 </r>
       </set>
       <set comment="band 49">
        <r>  0.0015  0.0009  0.0009  0.0009  0.0031  0.0002  0.0033  0.0002  0.0000 </r>
        <r>  0.0002  0.0007  0.0010  0.0033  0.0040  0.0134  0.0003  0.0029  0.0003 </r>
        <r>  0.0002  0.0031  0.0011  0.0008  0.0040  0.0028  0.0003  0.0133  0.0003 </r>
        <r>  0.0015  0.0006  0.0027  0.0007  0.0093  0.0020  0.0022  0.0020  0.0000 </r>
        <r>  0.0357  0.0002  0.0095  0.0002  0.0052  0.0040  0.0001  0.0040  0.0000 </r>
        <r>  0.0140  0.0002  0.0027  0.0001  0.0022  0.0009  0.0003  0.0008  0.0000 </r>
        <r>  0.0329  0.0004  0.0020  0.0004  0.0008  0.0005  0.0000  0.0006  0.0000 </r>
        <r>  0.0013  0.0002  0.0017  0.0004  0.0034  0.0023  0.0001  0.0028  0.0000 </r>
        <r>  0.0013  0.0005  0.0018  0.0002  0.0034  0.0028  0.0001  0.0024  0.0000 </r>
        <r>  0.0000  0.0040  0.0014  0.0086  0.0000  0.0000  0.0000  0.0000  0.0000 </r>
        <r>  0.0000  0.0081  0.0013  0.0035  0.0000  0.0000  0.0000  0.0000  0.0000 </r>
        <r>  0.0004  0.0010  0.0220  0.0013  0.0000  0.0000  0.0000  0.0000  0.0000 </r>
        <r>  0.0001  0.0014  0.0265  0.0013  0.0000  0.0000  0.0000  0.0000  0.0000 </r>
        <r>  0.0004  0.0003  0.0061  0.0004  0.0000  0.0000  0.0000  0.0000  0.0000 </r>
        <r>  0.0007  0.0011  0.0397  0.0012  0.0000  0.0000  0.0000  0.0000  0.0000 </r>
        <r>  0.0001  0.0166  0.0022  0.0054  0.0000  0.0000  0.0000  0.0000  0.0000 </r>
        <r>  0.0001  0.0049  0.0021  0.0158  0.0000  0.0000  0.0000  0.0000  0.0000 </r>
       </set>
       <set comment="band 50">
        <r>  0.0002  0.0006  0.0030  0.0006  0.0057  0.0009  0.0060  0.0009  0.0000 </r>
        <r>  0.0037  0.0012  0.0014  0.0008  0.0060  0.0009  0.0006  0.0095  0.0002 </r>
        <r>  0.0038  0.0007  0.0014  0.0014  0.0060  0.0095  0.0005  0.0009  0.0002 </r>
        <r>  0.0139  0.0029  0.0087  0.0028  0.0023  0.0024  0.0005  0.0023  0.0000 </r>
        <r>  0.0022  0.0067  0.0014  0.0066  0.0006  0.0007  0.0002  0.0007  0.0000 </r>
        <r>  0.0003  0.0021  0.0115  0.0021  0.0062  0.0006  0.0049  0.0006  0.0000 </r>
        <r>  0.0024  0.0052  0.0070  0.0051  0.0066  0.0001  0.0005  0.0001  0.0000 </r>
        <r>  0.0048  0.0063  0.0051  0.0004  0.0010  0.0003  0.0002  0.0069  0.0000 </r>
        <r>  0.0052  0.0004  0.0051  0.0062  0.0010  0.0069  0.0002  0.0003  0.0000 </r>
        <r>  0.0003  0.0017  0.0048  0.0088  0.0000  0.0000  0.0000  0.0000  0.0000 </r>
        <r>  0.0003  0.0088  0.0046  0.0019  0.0000  0.0000  0.0000  0.0000  0.0000 </r>
        <r>  0.0016  0.0002  0.0110  0.0003  0.0000  0.0000  0.0000  0.0000  0.0000 </r>
        <r>  0.0004  0.0062  0.0221  0.0060  0.0000  0.0000  0.0000  0.0000  0.0000 </r>
        <r>  0.0002  0.0020  0.0106  0.0018  0.0000  0.0000  0.0000  0.0000  0.0000 </r>
        <r>  0.0010  0.0015  0.0214  0.0013  0.0000  0.0000  0.0000  0.0000  0.0000 </r>
        <r>  0.0002  0.0107  0.0073  0.0056  0.0000  0.0000  0.0000  0.0000  0.0000 </r>
        <r>  0.0002  0.0056  0.0071  0.0108  0.0000  0.0000  0.0000  0.0000  0.0000 </r>
       </set>
       <set comment="band 51">
        <r>  0.0342  0.0005  0.0026  0.0005  0.0014  0.0011  0.0057  0.0011  0.0000 </r>
        <r>  0.0074  0.0011  0.0041  0.0074  0.0045  0.0003  0.0006  0.0005  0.0008 </r>
        <r>  0.0072  0.0075  0.0041  0.0012  0.0044  0.0005  0.0007  0.0003  0.0008 </r>
        <r>  0.0078  0.0008  0.0122  0.0008  0.0096  0.0009  0.0007  0.0009  0.0000 </r>
        <r>  0.0373  0.0023  0.0013  0.0022  0.0087  0.0003  0.0001  0.0003  0.0000 </r>
        <r>  0.0167  0.0012  0.0003  0.0011  0.0032  0.0017  0.0004  0.0017  0.0000 </r>
        <r>  0.0793  0.0016  0.0003  0.0016  0.0074  0.0009  0.0002  0.0009  0.0000 </r>
        <r>  0.0093  0.0046  0.0026  0.0026  0.0059  0.0000  0.0000  0.0014  0.0000 </r>
        <r>  0.0090  0.0027  0.0027  0.0045  0.0059  0.0014  0.0000  0.0000  0.0000 </r>
        <r>  0.0002  0.0061  0.0086  0.0012  0.0000  0.0000  0.0000  0.0000  0.0000 </r>
        <r>  0.0002  0.0012  0.0087  0.0062  0.0000  0.0000  0.0000  0.0000  0.0000 </r>
        <r>  0.0010  0.0031  0.0074  0.0029  0.0000  0.0000  0.0000  0.0000  0.0000 </r>
        <r>  0.0008  0.0098  0.0063  0.0097  0.0000  0.0000  0.0000  0.0000  0.0000 </r>
        <r>  0.0003  0.0011  0.0031  0.0010  0.0000  0.0000  0.0000  0.0000  0.0000 </r>
        <r>  0.0005  0.0006  0.0036  0.0007  0.0000  0.0000  0.0000  0.0000  0.0000 </r>
        <r>  0.0001  0.0089  0.0024  0.0040  0.0000  0.0000  0.0000  0.0000  0.0000 </r>
        <r>  0.0001  0.0041  0.0025  0.0089  0.0000  0.0000  0.0000  0.0000  0.0000 </r>
       </set>
       <set comment="band 52">
        <r>  0.0314  0.0006  0.0021  0.0023  0.0013  0.0020  0.0045  0.0005  0.0041 </r>
        <r>  0.0057  0.0036  0.0015  0.0093  0.0016  0.0023  0.0000  0.0009  0.0001 </r>
        <r>  0.0009  0.0025  0.0130  0.0035  0.0007  0.0018  0.0012  0.0032  0.0002 </r>
        <r>  0.0003  0.0071  0.0087  0.0078  0.0010  0.0018  0.0006  0.0000  0.0014 </r>
        <r>  0.0003  0.0045  0.0116  0.0018  0.0015  0.0007  0.0000  0.0010  0.0001 </r>
        <r>  0.0009  0.0022  0.0024  0.0051  0.0021  0.0005  0.0004  0.0029  0.0010 </r>
        <r>  0.0422  0.0025  0.0086  0.0038  0.0015  0.0011  0.0000  0.0004  0.0000 </r>
        <r>  0.0635  0.0024  0.0069  0.0030  0.0010  0.0007  0.0001  0.0011  0.0000 </r>
        <r>  0.0580  0.0013  0.0058  0.0010  0.0012  0.0004  0.0001  0.0004  0.0001 </r>
        <r>  0.0010  0.0004  0.0036  0.0058  0.0000  0.0000  0.0000  0.0000  0.0000 </r>
        <r>  0.0003  0.0014  0.0008  0.0096  0.0000  0.0000  0.0000  0.0000  0.0000 </r>
        <r>  0.0000  0.0126  0.0034  0.0034  0.0000  0.0000  0.0000  0.0000  0.0000 </r>
        <r>  0.0007  0.0039  0.0030  0.0011  0.0000  0.0000  0.0000  0.0000  0.0000 </r>
        <r>  0.0000  0.0004  0.0017  0.0018  0.0000  0.0000  0.0000  0.0000  0.0000 </r>
        <r>  0.0004  0.0038  0.0133  0.0051  0.0000  0.0000  0.0000  0.0000  0.0000 </r>
        <r>  0.0006  0.0069  0.0137  0.0028  0.0000  0.0000  0.0000  0.0000  0.0000 </r>
        <r>  0.0002  0.0066  0.0084  0.0017  0.0000  0.0000  0.0000  0.0000  0.0000 </r>
       </set>
      </set>
     </set>
    </set>
   </array>
  </projected>
 </calculation>
 <structure name="finalpos" >
  <crystal>
   <varray name="basis" >
    <v>       0.00000000       4.24689300       4.24689300 </v>
    <v>       4.24689300       0.00000000       4.24689300 </v>
    <v>       4.24689300       4.24689300       0.00000000 </v>
   </varray>
   <i name="volume">    153.19477498 </i>
   <varray name="rec_basis" >
    <v>      -0.11773313       0.11773313       0.11773313 </v>
    <v>       0.11773313      -0.11773313       0.11773313 </v>
    <v>       0.11773313       0.11773313      -0.11773313 </v>
   </varray>
  </crystal>
  <varray name="positions" >
   <v>       0.12176893       0.12706428       0.12320262 </v>
   <v>       0.97735949       0.98357802       0.97866399 </v>
   <v>       0.97723264       0.98335529       0.55521382 </v>
   <v>       0.97936569       0.55901929       0.97856982 </v>
   <v>       0.99600901       0.50242518       0.49878482 </v>
   <v>       0.55411715       0.98101961       0.97982109 </v>
   <v>       0.49691383       0.00105350       0.49823106 </v>
   <v>       0.49713552       0.50230668       0.99744859 </v>
   <v>       0.49795500       0.50158847       0.49846651 </v>
   <v>       0.24649441       0.25319876       0.24874072 </v>
   <v>       0.24697776       0.25226719       0.74674805 </v>
   <v>       0.24832625       0.75038161       0.24834923 </v>
   <v>       0.24849108       0.75218218       0.74709519 </v>
   <v>       0.74548009       0.25170934       0.24856441 </v>
   <v>       0.74504886       0.25342361       0.74816691 </v>
   <v>       0.74693485       0.75108213       0.24953409 </v>
   <v>       0.74689843       0.75084985       0.74733209 </v>
  </varray>
 </structure>
</modeling>
