unknown system                          
   1.00000000000000     
     0.000000    3.399000    3.399000
     3.399000    0.000000    3.399000
     3.399000    3.399000    0.000000
   Sb   Li   Na
     1     2     1
Direct
  0.000000  0.000000  0.000000
  0.750000  0.750000  0.750000
  0.250000  0.250000  0.250000
  0.500000  0.500000  0.500000
 
   48   48   48
 -32.202     -29.813     -23.057     -13.070     -1.4694      9.9825      19.725      26.672      30.360      30.957    
  29.143      25.900      22.268      18.901      15.915      13.342      11.179      9.4026      7.9773      6.8619    
  6.0155      5.4005      4.9854      4.7463      4.6682      4.7463      4.9854      5.4005      6.0155      6.8619    
  7.9773      9.4026      11.179      13.342      15.915      18.901      22.268      25.900      29.143      30.957    
  30.360      26.672      19.725      9.9825     -1.4694     -13.070     -23.057     -29.813     -29.813     -25.243    
 -16.882     -6.1241      5.3291      15.808      23.989      29.109      31.039      30.225      27.521      23.960    
  20.446      17.282      14.516      12.163      10.208      8.6206      7.3616      6.3900      5.6665      5.1568    
  4.8332      4.6764      4.6764      4.8332      5.1568      5.6665      6.3900      7.3616      8.6206      10.208    
  12.163      14.516      17.282      20.446      23.960      27.521      30.225      31.039      29.109      23.989    
  15.808      5.3291     -6.1241     -16.882     -25.243     -29.813     -23.057     -16.882     -7.7786      2.7478    
  13.061      21.720      27.734      30.703      30.817      28.746      25.433      21.857      18.564      15.645    
  13.130      11.015      9.2758      7.8789      6.7841      5.9519      5.3462      4.9367      4.7005      4.6234    
  4.7005      4.9367      5.3462      5.9519      6.7841      7.8789      9.2758      11.015      13.130      15.645    
  18.564      21.857      25.433      28.746      30.817      30.703      27.734      21.720      13.061      2.7478    
 -7.7786     -16.882     -23.057     -25.243     -13.070     -6.1241      2.7478      12.074      20.425      26.686    
  30.246      31.057      29.575      26.601      23.071      19.708      16.684      14.043      11.794      9.9227    
  8.3998      7.1888      6.2512      5.5506      5.0553      4.7399      4.5867      4.5867      4.7399      5.0553    
  5.5506      6.2512      7.1888      8.3998      9.9227      11.794      14.043      16.684      19.708      23.071    
  26.601      29.575      31.057      30.246      26.686      20.425      12.074      2.7478     -6.1241     -13.070    
 -16.882     -16.882     -1.4694      5.3291      13.061      20.425      26.296      29.939      31.112      30.065    
  27.428      24.035      20.662      17.586      14.863      12.515      10.537      8.9064      7.5916      6.5563    
  5.7653      5.1864      4.7931      4.5653      4.4908      4.5653      4.7931      5.1864      5.7653      6.5563    
  7.5916      8.9064      10.537      12.515      14.863      17.586      20.662      24.035      27.428      30.065    
  31.112      29.939      26.296      20.425      13.061      5.3291     -1.4694     -6.1241     -7.7786     -6.1241    
  9.9825      15.808      21.720      26.686      29.939      31.114      30.287      27.916      24.701      21.381    
  18.307      15.551      13.144      11.091      9.3778      7.9769      6.8565      5.9831      5.3257      4.8575    
  4.5575      4.4111      4.4111      4.5575      4.8575      5.3257      5.9831      6.8565      7.9769      9.3778    
  11.091      13.144      15.551      18.307      21.381      24.701      27.916      30.287      31.114      29.939    
  26.686      21.720      15.808      9.9825      5.3291      2.7478      2.7478      5.3291      19.725      23.989    
  27.734      30.246      31.112      30.287      28.076      25.039      21.827      18.811      16.072      13.650    
  11.559      9.7915      8.3273      7.1386      6.1950      5.4673      4.9296      4.5610      4.3460      4.2754    
  4.3460      4.5610      4.9296      5.4673      6.1950      7.1386      8.3273      9.7915      11.559      13.650    
  16.072      18.811      21.827      25.039      28.076      30.287      31.112      30.246      27.734      23.989    
  19.725      15.808      13.061      12.074      13.061      15.808      26.672      29.109      30.703      31.057    
  30.065      27.916      25.039      21.979      19.070      16.397      14.004      11.914      10.125      8.6244    
  7.3882      6.3902      5.6037      5.0046      4.5730      4.2936      4.1563      4.1563      4.2936      4.5730    
  5.0046      5.6037      6.3902      7.3882      8.6244      10.125      11.914      14.004      16.397      19.070    
  21.979      25.039      27.916      30.065      31.057      30.703      29.109      26.672      23.989      21.720    
  20.425      20.425      21.720      23.989      30.360      31.039      30.817      29.575      27.428      24.701    
  21.827      19.070      16.507      14.187      12.136      10.360      8.8510      7.5910      6.5574      5.7267    
  5.0770      4.5901      4.2518      4.0525      3.9867      4.0525      4.2518      4.5901      5.0770      5.7267    
  6.5574      7.5910      8.8510      10.360      12.136      14.187      16.507      19.070      21.827      24.701    
  27.428      29.575      30.817      31.039      30.360      29.109      27.734      26.686      26.296      26.686    
  27.734      29.109      30.957      30.225      28.746      26.601      24.035      21.381      18.811      16.397    
  14.187      12.211      10.481      8.9931      7.7342      6.6859      5.8280      5.1411      4.6089      4.2192    
  3.9634      3.8367      3.8367      3.9634      4.2192      4.6089      5.1411      5.8280      6.6859      7.7342    
  8.9931      10.481      12.211      14.187      16.397      18.811      21.381      24.035      26.601      28.746    
  30.225      30.957      31.039      30.703      30.246      29.939      29.939      30.246      30.703      31.039    
  29.143      27.521      25.433      23.071      20.662      18.307      16.072      14.004      12.136      10.481    
  9.0416      7.8084      6.7669      5.9002      5.1913      4.6262      4.1945      3.8894      3.7073      3.6467    
  3.7073      3.8894      4.1945      4.6262      5.1913      5.9002      6.7669      7.8084      9.0416      10.481    
  12.136      14.004      16.072      18.307      20.662      23.071      25.433      27.521      29.143      30.225    
  30.817      31.057      31.112      31.114      31.112      31.057      30.817      30.225      25.900      23.960    
  21.857      19.708      17.586      15.551      13.650      11.914      10.360      8.9931      7.8084      6.7946    
  5.9377      5.2234      4.6394      4.1771      3.8316      3.6011      3.4857      3.4857      3.6011      3.8316    
  4.1771      4.6394      5.2234      5.9377      6.7946      7.8084      8.9931      10.360      11.914      13.650    
  15.551      17.586      19.708      21.857      23.960      25.900      27.521      28.746      29.575      30.065    
  30.287      30.287      30.065      29.575      28.746      27.521      22.268      20.446      18.564      16.684    
  14.863      13.144      11.559      10.125      8.8510      7.7342      6.7669      5.9377      5.2344      4.6464    
  4.1667      3.7917      3.5216      3.3580      3.3032      3.3580      3.5216      3.7917      4.1667      4.6464    
  5.2344      5.9377      6.7669      7.7342      8.8510      10.125      11.559      13.144      14.863      16.684    
  18.564      20.446      22.268      23.960      25.433      26.601      27.428      27.916      28.076      27.916    
  27.428      26.601      25.433      23.960      18.901      17.282      15.645      14.043      12.515      11.091    
  9.7915      8.6244      7.5910      6.6859      5.9002      5.2234      4.6464      4.1632      3.7713      3.4721    
  3.2690      3.1661      3.1661      3.2690      3.4721      3.7713      4.1632      4.6464      5.2234      5.9002    
  6.6859      7.5910      8.6244      9.7915      11.091      12.515      14.043      15.645      17.282      18.901    
  20.446      21.857      23.071      24.035      24.701      25.039      25.039      24.701      24.035      23.071    
  21.857      20.446      15.915      14.516      13.130      11.794      10.537      9.3778      8.3273      7.3882    
  6.5574      5.8280      5.1913      4.6394      4.1667      3.7713      3.4552      3.2231      3.0807      3.0327    
  3.0807      3.2231      3.4552      3.7713      4.1667      4.6394      5.1913      5.8280      6.5574      7.3882    
  8.3273      9.3778      10.537      11.794      13.130      14.516      15.915      17.282      18.564      19.708    
  20.662      21.381      21.827      21.979      21.827      21.381      20.662      19.708      18.564      17.282    
  13.342      12.163      11.015      9.9227      8.9064      7.9769      7.1386      6.3902      5.7267      5.1411    
  4.6262      4.1771      3.7917      3.4721      3.2231      3.0517      2.9641      2.9641      3.0517      3.2231    
  3.4721      3.7917      4.1771      4.6262      5.1410      5.7267      6.3902      7.1386      7.9769      8.9064    
  9.9227      11.015      12.163      13.342      14.516      15.645      16.684      17.586      18.307      18.811    
  19.070      19.070      18.811      18.307      17.586      16.684      15.645      14.516      11.179      10.208    
  9.2758      8.3998      7.5916      6.8565      6.1950      5.6037      5.0770      4.6089      4.1945      3.8316    
  3.5216      3.2690      3.0807      2.9641      2.9245      2.9641      3.0807      3.2690      3.5216      3.8316    
  4.1945      4.6089      5.0770      5.6037      6.1950      6.8565      7.5916      8.3998      9.2758      10.208    
  11.179      12.163      13.130      14.043      14.863      15.551      16.072      16.397      16.507      16.397    
  16.072      15.551      14.863      14.043      13.130      12.163      9.4026      8.6206      7.8789      7.1888    
  6.5563      5.9831      5.4673      5.0046      4.5901      4.2192      3.8894      3.6011      3.3580      3.1661    
  3.0327      2.9641      2.9641      3.0327      3.1661      3.3580      3.6011      3.8894      4.2192      4.5901    
  5.0046      5.4673      5.9831      6.5563      7.1888      7.8789      8.6206      9.4026      10.208      11.015    
  11.794      12.515      13.144      13.650      14.004      14.187      14.187      14.004      13.650      13.144    
  12.515      11.794      11.015      10.208      7.9773      7.3616      6.7841      6.2512      5.7653      5.3257    
  4.9296      4.5730      4.2518      3.9634      3.7073      3.4857      3.3032      3.1661      3.0807      3.0517    
  3.0807      3.1661      3.3032      3.4857      3.7073      3.9634      4.2518      4.5730      4.9296      5.3257    
  5.7653      6.2512      6.7841      7.3616      7.9773      8.6206      9.2758      9.9227      10.537      11.091    
  11.559      11.914      12.136      12.211      12.136      11.914      11.559      11.091      10.537      9.9227    
  9.2758      8.6206      6.8619      6.3900      5.9519      5.5506      5.1864      4.8575      4.5610      4.2936    
  4.0525      3.8367      3.6467      3.4857      3.3580      3.2690      3.2231      3.2231      3.2690      3.3580    
  3.4857      3.6467      3.8367      4.0525      4.2936      4.5610      4.8575      5.1864      5.5506      5.9519    
  6.3900      6.8619      7.3616      7.8789      8.3998      8.9064      9.3778      9.7915      10.125      10.360    
  10.481      10.481      10.360      10.125      9.7915      9.3778      8.9064      8.3998      7.8789      7.3616    
  6.0155      5.6665      5.3462      5.0553      4.7931      4.5575      4.3460      4.1563      3.9867      3.8367    
  3.7073      3.6011      3.5216      3.4721      3.4552      3.4721      3.5216      3.6011      3.7073      3.8367    
  3.9867      4.1564      4.3460      4.5575      4.7931      5.0553      5.3462      5.6665      6.0155      6.3900    
  6.7841      7.1888      7.5916      7.9769      8.3273      8.6244      8.8510      8.9931      9.0416      8.9931    
  8.8510      8.6244      8.3273      7.9769      7.5916      7.1888      6.7841      6.3900      5.4005      5.1568    
  4.9367      4.7399      4.5653      4.4111      4.2754      4.1563      4.0525      3.9634      3.8894      3.8316    
  3.7917      3.7713      3.7713      3.7917      3.8316      3.8894      3.9634      4.0525      4.1564      4.2754    
  4.4111      4.5653      4.7399      4.9367      5.1568      5.4005      5.6665      5.9519      6.2512      6.5563    
  6.8565      7.1386      7.3882      7.5910      7.7342      7.8084      7.8084      7.7342      7.5910      7.3882    
  7.1386      6.8565      6.5563      6.2512      5.9519      5.6665      4.9854      4.8332      4.7005      4.5867    
  4.4908      4.4111      4.3460      4.2936      4.2518      4.2192      4.1945      4.1771      4.1667      4.1632    
  4.1667      4.1771      4.1945      4.2192      4.2518      4.2936      4.3460      4.4111      4.4908      4.5867    
  4.7005      4.8332      4.9854      5.1568      5.3462      5.5506      5.7653      5.9831      6.1950      6.3902    
  6.5574      6.6859      6.7669      6.7946      6.7669      6.6859      6.5574      6.3902      6.1950      5.9831    
  5.7653      5.5506      5.3462      5.1568      4.7463      4.6764      4.6234      4.5867      4.5653      4.5575    
  4.5610      4.5730      4.5901      4.6089      4.6262      4.6394      4.6464      4.6464      4.6394      4.6262    
  4.6089      4.5901      4.5730      4.5610      4.5575      4.5653      4.5867      4.6234      4.6764      4.7463    
  4.8332      4.9367      5.0553      5.1864      5.3257      5.4673      5.6037      5.7267      5.8280      5.9002    
  5.9377      5.9377      5.9002      5.8280      5.7267      5.6037      5.4673      5.3257      5.1864      5.0553    
  4.9367      4.8332      4.6682      4.6764      4.7005      4.7399      4.7931      4.8575      4.9296      5.0046    
  5.0770      5.1411      5.1913      5.2234      5.2344      5.2234      5.1913      5.1410      5.0770      5.0046    
  4.9296      4.8575      4.7931      4.7399      4.7005      4.6764      4.6683      4.6764      4.7005      4.7399    
  4.7931      4.8575      4.9296      5.0046      5.0770      5.1410      5.1913      5.2234      5.2344      5.2234    
  5.1913      5.1411      5.0770      5.0046      4.9296      4.8575      4.7931      4.7399      4.7005      4.6764    
  4.7463      4.8332      4.9367      5.0553      5.1864      5.3257      5.4673      5.6037      5.7267      5.8280    
  5.9002      5.9377      5.9377      5.9002      5.8280      5.7267      5.6037      5.4673      5.3257      5.1864    
  5.0553      4.9367      4.8332      4.7463      4.6764      4.6234      4.5867      4.5653      4.5575      4.5610    
  4.5730      4.5901      4.6089      4.6262      4.6394      4.6464      4.6464      4.6394      4.6262      4.6089    
  4.5901      4.5730      4.5610      4.5575      4.5653      4.5867      4.6234      4.6764      4.9854      5.1568    
  5.3462      5.5506      5.7653      5.9831      6.1950      6.3902      6.5574      6.6859      6.7669      6.7946    
  6.7669      6.6859      6.5574      6.3902      6.1950      5.9831      5.7653      5.5506      5.3462      5.1568    
  4.9854      4.8332      4.7005      4.5867      4.4908      4.4111      4.3460      4.2936      4.2518      4.2192    
  4.1945      4.1771      4.1667      4.1632      4.1667      4.1771      4.1945      4.2192      4.2518      4.2936    
  4.3460      4.4111      4.4908      4.5867      4.7005      4.8332      5.4005      5.6665      5.9519      6.2512    
  6.5563      6.8565      7.1386      7.3882      7.5910      7.7342      7.8084      7.8084      7.7342      7.5910    
  7.3882      7.1386      6.8565      6.5563      6.2512      5.9519      5.6665      5.4005      5.1568      4.9367    
  4.7399      4.5653      4.4111      4.2754      4.1564      4.0525      3.9634      3.8894      3.8316      3.7917    
  3.7713      3.7713      3.7917      3.8316      3.8894      3.9634      4.0525      4.1563      4.2754      4.4111    
  4.5653      4.7399      4.9367      5.1568      6.0155      6.3900      6.7841      7.1888      7.5916      7.9769    
  8.3273      8.6244      8.8510      8.9931      9.0416      8.9931      8.8510      8.6244      8.3273      7.9769    
  7.5916      7.1888      6.7841      6.3900      6.0155      5.6665      5.3462      5.0553      4.7931      4.5575    
  4.3460      4.1564      3.9867      3.8367      3.7073      3.6011      3.5216      3.4721      3.4552      3.4721    
  3.5216      3.6011      3.7073      3.8367      3.9867      4.1563      4.3460      4.5575      4.7931      5.0553    
  5.3462      5.6665      6.8619      7.3616      7.8789      8.3998      8.9064      9.3778      9.7915      10.125    
  10.360      10.481      10.481      10.360      10.125      9.7915      9.3778      8.9064      8.3998      7.8789    
  7.3616      6.8619      6.3900      5.9519      5.5506      5.1864      4.8575      4.5610      4.2936      4.0525    
  3.8367      3.6467      3.4857      3.3580      3.2690      3.2231      3.2231      3.2690      3.3580      3.4857    
  3.6467      3.8367      4.0525      4.2936      4.5610      4.8575      5.1864      5.5506      5.9519      6.3900    
  7.9773      8.6206      9.2758      9.9227      10.537      11.091      11.559      11.914      12.136      12.211    
  12.136      11.914      11.559      11.091      10.537      9.9227      9.2758      8.6206      7.9773      7.3616    
  6.7841      6.2512      5.7653      5.3257      4.9296      4.5730      4.2518      3.9634      3.7073      3.4857    
  3.3032      3.1661      3.0807      3.0517      3.0807      3.1661      3.3032      3.4857      3.7073      3.9634    
  4.2518      4.5730      4.9296      5.3257      5.7653      6.2512      6.7841      7.3616      9.4026      10.208    
  11.015      11.794      12.515      13.144      13.650      14.004      14.187      14.187      14.004      13.650    
  13.144      12.515      11.794      11.015      10.208      9.4026      8.6206      7.8789      7.1888      6.5563    
  5.9831      5.4673      5.0046      4.5901      4.2192      3.8894      3.6011      3.3580      3.1661      3.0327    
  2.9641      2.9641      3.0327      3.1661      3.3580      3.6011      3.8894      4.2192      4.5901      5.0046    
  5.4673      5.9831      6.5563      7.1888      7.8789      8.6206      11.179      12.163      13.130      14.043    
  14.863      15.551      16.072      16.397      16.507      16.397      16.072      15.551      14.863      14.043    
  13.130      12.163      11.179      10.208      9.2758      8.3998      7.5916      6.8565      6.1950      5.6037    
  5.0770      4.6089      4.1945      3.8316      3.5216      3.2690      3.0807      2.9641      2.9245      2.9641    
  3.0807      3.2690      3.5216      3.8316      4.1945      4.6089      5.0770      5.6037      6.1950      6.8565    
  7.5916      8.3998      9.2758      10.208      13.342      14.516      15.645      16.684      17.586      18.307    
  18.811      19.070      19.070      18.811      18.307      17.586      16.684      15.645      14.516      13.342    
  12.163      11.015      9.9227      8.9064      7.9769      7.1386      6.3902      5.7267      5.1410      4.6262    
  4.1771      3.7917      3.4721      3.2231      3.0517      2.9641      2.9641      3.0517      3.2231      3.4721    
  3.7917      4.1771      4.6262      5.1411      5.7267      6.3902      7.1386      7.9769      8.9064      9.9227    
  11.015      12.163      15.915      17.282      18.564      19.708      20.662      21.381      21.827      21.979    
  21.827      21.381      20.662      19.708      18.564      17.282      15.915      14.516      13.130      11.794    
  10.537      9.3778      8.3273      7.3882      6.5574      5.8280      5.1913      4.6394      4.1667      3.7713    
  3.4552      3.2231      3.0807      3.0327      3.0807      3.2231      3.4552      3.7713      4.1667      4.6394    
  5.1913      5.8280      6.5574      7.3882      8.3273      9.3778      10.537      11.794      13.130      14.516    
  18.901      20.446      21.857      23.071      24.035      24.701      25.039      25.039      24.701      24.035    
  23.071      21.857      20.446      18.901      17.282      15.645      14.043      12.515      11.091      9.7915    
  8.6244      7.5910      6.6859      5.9002      5.2234      4.6464      4.1632      3.7713      3.4721      3.2690    
  3.1661      3.1661      3.2690      3.4721      3.7713      4.1632      4.6464      5.2234      5.9002      6.6859    
  7.5910      8.6244      9.7915      11.091      12.515      14.043      15.645      17.282      22.268      23.960    
  25.433      26.601      27.428      27.916      28.076      27.916      27.428      26.601      25.433      23.960    
  22.268      20.446      18.564      16.684      14.863      13.144      11.559      10.125      8.8510      7.7342    
  6.7669      5.9377      5.2344      4.6464      4.1667      3.7917      3.5216      3.3580      3.3032      3.3580    
  3.5216      3.7917      4.1667      4.6464      5.2344      5.9377      6.7669      7.7342      8.8510      10.125    
  11.559      13.144      14.863      16.684      18.564      20.446      25.900      27.521      28.746      29.575    
  30.065      30.287      30.287      30.065      29.575      28.746      27.521      25.900      23.960      21.857    
  19.708      17.586      15.551      13.650      11.914      10.360      8.9931      7.8084      6.7946      5.9377    
  5.2234      4.6394      4.1771      3.8316      3.6011      3.4857      3.4857      3.6011      3.8316      4.1771    
  4.6394      5.2234      5.9377      6.7946      7.8084      8.9931      10.360      11.914      13.650      15.551    
  17.586      19.708      21.857      23.960      29.143      30.225      30.817      31.057      31.112      31.114    
  31.112      31.057      30.817      30.225      29.143      27.521      25.433      23.071      20.662      18.307    
  16.072      14.004      12.136      10.481      9.0416      7.8084      6.7669      5.9002      5.1913      4.6262    
  4.1945      3.8894      3.7073      3.6467      3.7073      3.8894      4.1945      4.6262      5.1913      5.9002    
  6.7669      7.8084      9.0416      10.481      12.136      14.004      16.072      18.307      20.662      23.071    
  25.433      27.521      30.957      31.039      30.703      30.246      29.939      29.939      30.246      30.703    
  31.039      30.957      30.225      28.746      26.601      24.035      21.381      18.811      16.397      14.187    
  12.211      10.481      8.9931      7.7342      6.6859      5.8280      5.1411      4.6089      4.2192      3.9634    
  3.8367      3.8367      3.9634      4.2192      4.6089      5.1411      5.8280      6.6859      7.7342      8.9931    
  10.481      12.211      14.187      16.397      18.811      21.381      24.035      26.601      28.746      30.225    
  30.360      29.109      27.734      26.686      26.296      26.686      27.734      29.109      30.360      31.039    
  30.817      29.575      27.428      24.701      21.827      19.070      16.507      14.187      12.136      10.360    
  8.8510      7.5910      6.5574      5.7267      5.0770      4.5901      4.2518      4.0525      3.9867      4.0525    
  4.2518      4.5901      5.0770      5.7267      6.5574      7.5910      8.8510      10.360      12.136      14.187    
  16.507      19.070      21.827      24.701      27.428      29.575      30.817      31.039      26.672      23.989    
  21.720      20.425      20.425      21.720      23.989      26.672      29.109      30.703      31.057      30.065    
  27.916      25.039      21.979      19.070      16.397      14.004      11.914      10.125      8.6244      7.3882    
  6.3902      5.6037      5.0046      4.5730      4.2936      4.1563      4.1563      4.2936      4.5730      5.0046    
  5.6037      6.3902      7.3882      8.6244      10.125      11.914      14.004      16.397      19.070      21.979    
  25.039      27.916      30.065      31.057      30.703      29.109      19.725      15.808      13.061      12.074    
  13.061      15.808      19.725      23.989      27.734      30.246      31.112      30.287      28.076      25.039    
  21.827      18.811      16.072      13.650      11.559      9.7915      8.3273      7.1386      6.1950      5.4673    
  4.9296      4.5610      4.3460      4.2754      4.3460      4.5610      4.9296      5.4673      6.1950      7.1386    
  8.3273      9.7915      11.559      13.650      16.072      18.811      21.827      25.039      28.076      30.287    
  31.112      30.246      27.734      23.989      9.9825      5.3291      2.7478      2.7478      5.3291      9.9825    
  15.808      21.720      26.686      29.939      31.114      30.287      27.916      24.701      21.381      18.307    
  15.551      13.144      11.091      9.3778      7.9769      6.8565      5.9831      5.3257      4.8575      4.5575    
  4.4111      4.4111      4.5575      4.8575      5.3257      5.9831      6.8565      7.9769      9.3778      11.091    
  13.144      15.551      18.307      21.381      24.701      27.916      30.287      31.114      29.939      26.686    
  21.720      15.808     -1.4694     -6.1241     -7.7786     -6.1241     -1.4694      5.3291      13.061      20.425    
  26.296      29.939      31.112      30.065      27.428      24.035      20.662      17.586      14.863      12.515    
  10.537      8.9064      7.5916      6.5563      5.7653      5.1864      4.7931      4.5653      4.4908      4.5653    
  4.7931      5.1864      5.7653      6.5563      7.5916      8.9064      10.537      12.515      14.863      17.586    
  20.662      24.035      27.428      30.065      31.112      29.939      26.296      20.425      13.061      5.3291    
 -13.070     -16.882     -16.882     -13.070     -6.1241      2.7478      12.074      20.425      26.686      30.246    
  31.057      29.575      26.601      23.071      19.708      16.684      14.043      11.794      9.9227      8.3998    
  7.1888      6.2512      5.5506      5.0553      4.7399      4.5867      4.5867      4.7399      5.0553      5.5506    
  6.2512      7.1888      8.3998      9.9227      11.794      14.043      16.684      19.708      23.071      26.601    
  29.575      31.057      30.246      26.686      20.425      12.074      2.7478     -6.1241     -23.057     -25.243    
 -23.057     -16.882     -7.7786      2.7478      13.061      21.720      27.734      30.703      30.817      28.746    
  25.433      21.857      18.564      15.645      13.130      11.015      9.2758      7.8789      6.7841      5.9519    
  5.3462      4.9367      4.7005      4.6234      4.7005      4.9367      5.3462      5.9519      6.7841      7.8789    
  9.2758      11.015      13.130      15.645      18.564      21.857      25.433      28.746      30.817      30.703    
  27.734      21.720      13.061      2.7478     -7.7786     -16.882     -29.813     -29.813     -25.243     -16.882    
 -6.1241      5.3291      15.808      23.989      29.109      31.039      30.225      27.521      23.960      20.446    
  17.282      14.516      12.163      10.208      8.6206      7.3616      6.3900      5.6665      5.1568      4.8332    
  4.6764      4.6764      4.8332      5.1568      5.6665      6.3900      7.3616      8.6206      10.208      12.163    
  14.516      17.282      20.446      23.960      27.521      30.225      31.039      29.109      23.989      15.808    
  5.3291     -6.1241     -16.882     -25.243     -29.813     -25.243     -16.882     -6.1241      5.3291      15.808    
  23.989      29.109      31.039      30.225      27.521      23.960      20.446      17.282      14.516      12.163    
  10.208      8.6206      7.3616      6.3900      5.6665      5.1568      4.8332      4.6764      4.6764      4.8332    
  5.1568      5.6665      6.3900      7.3616      8.6206      10.208      12.163      14.516      17.282      20.446    
  23.960      27.521      30.225      31.039      29.109      23.989      15.808      5.3291     -6.1241     -16.882    
 -25.243     -29.813     -25.243     -18.877     -9.4840      1.3942      12.080      21.093      27.412      30.616    
  30.887      28.898      25.606      22.010      18.692      15.750      13.214      11.081      9.3282      7.9199    
  6.8164      5.9779      5.3677      4.9553      4.7175      4.6398      4.7175      4.9553      5.3677      5.9779    
  6.8164      7.9199      9.3282      11.081      13.214      15.750      18.692      22.010      25.606      28.898    
  30.887      30.616      27.412      21.093      12.080      1.3941     -9.4840     -18.877     -25.243     -27.494    
 -16.882     -9.4840     -.87613E-02  9.9971      19.026      25.899      29.953      31.116      29.841      26.945    
  23.398      19.984      16.912      14.228      11.941      10.039      8.4906      7.2601      6.3078      5.5966    
  5.0941      4.7743      4.6190      4.6190      4.7743      5.0941      5.5966      6.3078      7.2601      8.4906    
  10.039      11.941      14.228      16.912      19.984      23.398      26.945      29.841      31.116      29.953    