   4   4   1   0
  0.1963467E+02  0.4806912E-09  0.4806912E-09  0.4806912E-09  0.5000000E-15
  1.000000000000000E-004
  CAR 
 unknown system                          
     20.25293631     -6.68628077  301      3.82282006      1.00000000
     -6.686  0.0000E+00  0.0000E+00
     -6.596  0.0000E+00  0.0000E+00
     -6.507  0.0000E+00  0.0000E+00
     -6.417  0.0000E+00  0.0000E+00
     -6.327  0.0000E+00  0.0000E+00
     -6.237  0.0000E+00  0.0000E+00
     -6.147  0.0000E+00  0.0000E+00
     -6.058  0.0000E+00  0.0000E+00
     -5.968  0.0000E+00  0.0000E+00
     -5.878  0.0000E+00  0.0000E+00
     -5.788  0.0000E+00  0.0000E+00
     -5.699  0.2386E-12  0.2143E-13
     -5.609  0.3635E-06  0.3264E-07
     -5.519  0.1469E-02  0.1319E-03
     -5.429  0.1007E+00  0.9178E-02
     -5.339  0.3985E+00  0.4497E-01
     -5.250  0.7559E+00  0.1128E+00
     -5.160  0.9673E+00  0.1997E+00
     -5.070  0.1287E+01  0.3152E+00
     -4.980  0.1773E+01  0.4744E+00
     -4.890  0.2375E+01  0.6877E+00
     -4.801  0.4226E+01  0.1067E+01
     -4.711  0.5363E+01  0.1549E+01
     -4.621  0.4597E+01  0.1962E+01
     -4.531  0.4278E+00  0.2000E+01
     -4.441  0.4978E-03  0.2000E+01
     -4.352  0.2387E-08  0.2000E+01
     -4.262  0.2967E-16  0.2000E+01
     -4.172  0.0000E+00  0.2000E+01
     -4.082  0.0000E+00  0.2000E+01
     -3.992  0.0000E+00  0.2000E+01
     -3.903  0.0000E+00  0.2000E+01
     -3.813  0.0000E+00  0.2000E+01
     -3.723  0.0000E+00  0.2000E+01
     -3.633  0.0000E+00  0.2000E+01
     -3.543  0.0000E+00  0.2000E+01
     -3.454  0.0000E+00  0.2000E+01
     -3.364  0.0000E+00  0.2000E+01
     -3.274  0.0000E+00  0.2000E+01
     -3.184  0.0000E+00  0.2000E+01
     -3.094  0.0000E+00  0.2000E+01
     -3.005  0.0000E+00  0.2000E+01
     -2.915  0.0000E+00  0.2000E+01
     -2.825  0.0000E+00  0.2000E+01
     -2.735  0.0000E+00  0.2000E+01
     -2.645  0.0000E+00  0.2000E+01
     -2.556  0.0000E+00  0.2000E+01
     -2.466  0.0000E+00  0.2000E+01
     -2.376  0.0000E+00  0.2000E+01
     -2.286  0.0000E+00  0.2000E+01
     -2.196  0.0000E+00  0.2000E+01
     -2.107  0.0000E+00  0.2000E+01
     -2.017  0.0000E+00  0.2000E+01
     -1.927  0.0000E+00  0.2000E+01
     -1.837  0.0000E+00  0.2000E+01
     -1.747  0.0000E+00  0.2000E+01
     -1.658  0.0000E+00  0.2000E+01
     -1.568  0.0000E+00  0.2000E+01
     -1.478  0.0000E+00  0.2000E+01
     -1.388  0.0000E+00  0.2000E+01
     -1.298  0.0000E+00  0.2000E+01
     -1.209  0.0000E+00  0.2000E+01
     -1.119  0.0000E+00  0.2000E+01
     -1.029  0.0000E+00  0.2000E+01
     -0.939  0.0000E+00  0.2000E+01
     -0.849  0.0000E+00  0.2000E+01
     -0.760  0.0000E+00  0.2000E+01
     -0.670  0.0000E+00  0.2000E+01
     -0.580  0.0000E+00  0.2000E+01
     -0.490  0.0000E+00  0.2000E+01
     -0.400  0.0000E+00  0.2000E+01
     -0.311  0.4500E-15  0.2000E+01
     -0.221  0.8981E-08  0.2000E+01
     -0.131  0.3502E-03  0.2000E+01
     -0.041  0.4158E-01  0.2004E+01
      0.049  0.2743E+00  0.2028E+01
      0.138  0.7473E+00  0.2096E+01
      0.228  0.8960E+00  0.2176E+01
      0.318  0.8179E+00  0.2249E+01
      0.408  0.1516E+01  0.2386E+01
      0.498  0.2141E+01  0.2578E+01
      0.587  0.1610E+01  0.2722E+01
      0.677  0.2746E+01  0.2969E+01
      0.767  0.3874E+01  0.3317E+01
      0.857  0.1348E+01  0.3438E+01
      0.946  0.1550E+01  0.3577E+01
      1.036  0.1178E+01  0.3683E+01
      1.126  0.8122E+00  0.3756E+01
      1.216  0.1401E+01  0.3882E+01
      1.306  0.1889E+01  0.4051E+01
      1.395  0.1190E+01  0.4158E+01
      1.485  0.1922E+01  0.4331E+01
      1.575  0.2347E+01  0.4541E+01
      1.665  0.1681E+01  0.4692E+01
      1.755  0.2775E+01  0.4942E+01
      1.844  0.2722E+01  0.5186E+01
      1.934  0.1389E+01  0.5311E+01
      2.024  0.2235E+01  0.5512E+01
      2.114  0.4033E+01  0.5874E+01
      2.204  0.2673E+01  0.6114E+01
      2.293  0.1802E+01  0.6276E+01
      2.383  0.1550E+01  0.6415E+01
      2.473  0.2415E+01  0.6632E+01
      2.563  0.2995E+01  0.6901E+01
      2.653  0.1576E+01  0.7042E+01
      2.742  0.1788E+01  0.7203E+01
      2.832  0.2213E+01  0.7401E+01
      2.922  0.1220E+01  0.7511E+01
      3.012  0.1547E+01  0.7650E+01
      3.102  0.1455E+01  0.7781E+01
      3.191  0.5752E+00  0.7832E+01
      3.281  0.7190E+00  0.7897E+01
      3.371  0.4533E+00  0.7937E+01
      3.461  0.2150E+00  0.7957E+01
      3.551  0.4196E+00  0.7994E+01
      3.640  0.5995E-01  0.8000E+01
      3.730  0.2096E-02  0.8000E+01
      3.820  0.3598E-06  0.8000E+01
      3.910  0.1301E-12  0.8000E+01
      4.000  0.1644E-12  0.8000E+01
      4.089  0.4189E-06  0.8000E+01
      4.179  0.2255E-02  0.8000E+01
      4.269  0.4864E-01  0.8005E+01
      4.359  0.1592E-01  0.8006E+01
      4.449  0.2426E-01  0.8008E+01
      4.538  0.2429E+00  0.8030E+01
      4.628  0.3859E+00  0.8065E+01
      4.718  0.1881E-01  0.8066E+01
      4.808  0.1649E+00  0.8081E+01
      4.898  0.1059E+00  0.8091E+01
      4.987  0.6404E+00  0.8148E+01
      5.077  0.6915E+00  0.8210E+01
      5.167  0.4490E+00  0.8251E+01
      5.257  0.2283E+00  0.8271E+01
      5.347  0.2698E+00  0.8295E+01
      5.436  0.1129E+01  0.8397E+01
      5.526  0.2575E+00  0.8420E+01
      5.616  0.7509E+00  0.8487E+01
      5.706  0.1599E+01  0.8631E+01
      5.796  0.1766E+01  0.8789E+01
      5.885  0.1400E+01  0.8915E+01
      5.975  0.1258E+01  0.9028E+01
      6.065  0.1837E+01  0.9193E+01
      6.155  0.3241E+01  0.9484E+01
      6.245  0.3403E+01  0.9790E+01
      6.334  0.2600E+01  0.1002E+02
      6.424  0.2377E+01  0.1024E+02
      6.514  0.2590E+01  0.1047E+02
      6.604  0.3388E+01  0.1077E+02
      6.694  0.2616E+01  0.1101E+02
      6.783  0.3105E+01  0.1129E+02
      6.873  0.1276E+01  0.1140E+02
      6.963  0.1226E+01  0.1151E+02
      7.053  0.2893E+01  0.1177E+02
      7.143  0.3196E+01  0.1206E+02
      7.232  0.2930E+01  0.1232E+02
      7.322  0.1281E+01  0.1244E+02
      7.412  0.1973E+01  0.1261E+02
      7.502  0.2504E+01  0.1284E+02
      7.592  0.1730E+01  0.1299E+02
      7.681  0.1975E+01  0.1317E+02
      7.771  0.2081E+01  0.1336E+02
      7.861  0.1491E+01  0.1349E+02
      7.951  0.1628E+01  0.1364E+02
      8.040  0.1449E+01  0.1377E+02
      8.130  0.1918E+01  0.1394E+02
      8.220  0.1691E+01  0.1409E+02
      8.310  0.2501E+01  0.1432E+02
      8.400  0.3152E+01  0.1460E+02
      8.489  0.1320E+01  0.1472E+02
      8.579  0.9274E+00  0.1480E+02
      8.669  0.1241E+01  0.1491E+02
      8.759  0.1819E+01  0.1508E+02
      8.849  0.1962E+01  0.1525E+02
      8.938  0.3376E+01  0.1556E+02
      9.028  0.3238E+01  0.1585E+02
      9.118  0.1555E+01  0.1599E+02
      9.208  0.3985E+00  0.1602E+02
      9.298  0.1328E+01  0.1614E+02
      9.387  0.7587E+00  0.1621E+02
      9.477  0.1970E+01  0.1639E+02
      9.567  0.2062E+01  0.1657E+02
      9.657  0.3381E+01  0.1688E+02
      9.747  0.2258E+01  0.1708E+02
      9.836  0.1293E+01  0.1719E+02
      9.926  0.2322E+01  0.1740E+02
     10.016  0.2273E+01  0.1761E+02
     10.106  0.2431E+01  0.1783E+02
     10.196  0.1960E+01  0.1800E+02
     10.285  0.3189E+01  0.1829E+02
     10.375  0.2320E+01  0.1850E+02
     10.465  0.2763E+01  0.1874E+02
     10.555  0.1559E+01  0.1888E+02
     10.645  0.9250E+00  0.1897E+02
     10.734  0.2436E+01  0.1919E+02
     10.824  0.1332E+01  0.1931E+02
     10.914  0.1340E+01  0.1943E+02
     11.004  0.3149E+01  0.1971E+02
     11.094  0.4408E+01  0.2010E+02
     11.183  0.1432E+01  0.2023E+02
     11.273  0.2461E+01  0.2045E+02
     11.363  0.2837E+01  0.2071E+02
     11.453  0.2176E+01  0.2090E+02
     11.543  0.2476E+01  0.2113E+02
     11.632  0.2650E+01  0.2136E+02
     11.722  0.3004E+01  0.2163E+02
     11.812  0.1526E+01  0.2177E+02
     11.902  0.6869E+00  0.2183E+02
     11.992  0.2046E+01  0.2202E+02
     12.081  0.1749E+01  0.2217E+02
     12.171  0.1028E+01  0.2227E+02
     12.261  0.2622E+01  0.2250E+02
     12.351  0.3298E+01  0.2280E+02
     12.441  0.2304E+01  0.2300E+02
     12.530  0.1158E+01  0.2311E+02
     12.620  0.1631E+01  0.2325E+02
     12.710  0.3586E+01  0.2358E+02
     12.800  0.3414E+01  0.2388E+02
     12.890  0.2462E+01  0.2410E+02
     12.979  0.3527E+01  0.2442E+02
     13.069  0.3240E+01  0.2471E+02
     13.159  0.2381E+01  0.2493E+02
     13.249  0.2709E+01  0.2517E+02
     13.339  0.1893E+01  0.2534E+02
     13.428  0.2158E+01  0.2553E+02
     13.518  0.1529E+01  0.2567E+02
     13.608  0.1365E+01  0.2579E+02
     13.698  0.4452E+01  0.2619E+02
     13.788  0.2817E+01  0.2645E+02
     13.877  0.2329E+01  0.2665E+02
     13.967  0.1876E+01  0.2682E+02
     14.057  0.2109E+01  0.2701E+02
     14.147  0.3114E+01  0.2729E+02
     14.237  0.1256E+01  0.2741E+02
     14.326  0.1131E+01  0.2751E+02
     14.416  0.7304E+00  0.2757E+02
     14.506  0.2042E+01  0.2776E+02
     14.596  0.2920E+01  0.2802E+02
     14.685  0.5234E+01  0.2849E+02
     14.775  0.3200E+01  0.2878E+02
     14.865  0.2364E+01  0.2899E+02
     14.955  0.2017E+01  0.2917E+02
     15.045  0.1258E+01  0.2928E+02
     15.134  0.2611E+01  0.2952E+02
     15.224  0.1427E+01  0.2964E+02
     15.314  0.3244E+01  0.2994E+02
     15.404  0.2433E+01  0.3015E+02
     15.494  0.2008E+01  0.3033E+02
     15.583  0.3767E+01  0.3067E+02
     15.673  0.1642E+01  0.3082E+02
     15.763  0.1943E+01  0.3099E+02
     15.853  0.2141E+01  0.3119E+02
     15.943  0.1259E+01  0.3130E+02
     16.032  0.7738E+00  0.3137E+02
     16.122  0.5796E+00  0.3142E+02
     16.212  0.1580E+01  0.3156E+02
     16.302  0.1550E+01  0.3170E+02
     16.392  0.8108E+00  0.3178E+02
     16.481  0.7489E+00  0.3184E+02
     16.571  0.2510E+00  0.3186E+02
     16.661  0.3110E+00  0.3189E+02
     16.751  0.3148E+00  0.3192E+02
     16.841  0.1850E+00  0.3194E+02
     16.930  0.3819E-02  0.3194E+02
     17.020  0.5225E-06  0.3194E+02
     17.110  0.1662E-12  0.3194E+02
     17.200  0.6138E-07  0.3194E+02
     17.290  0.9890E-03  0.3194E+02
     17.379  0.6560E-01  0.3194E+02
     17.469  0.2395E+00  0.3197E+02
     17.559  0.5014E-01  0.3197E+02
     17.649  0.8104E-04  0.3197E+02
     17.739  0.1313E-08  0.3197E+02
     17.828  0.1195E-03  0.3197E+02
     17.918  0.3727E-01  0.3197E+02
     18.008  0.9288E-01  0.3198E+02
     18.098  0.5635E-02  0.3198E+02
     18.188  0.1082E+00  0.3199E+02
     18.277  0.6733E-01  0.3200E+02
     18.367  0.3955E-03  0.3200E+02
     18.457  0.6456E-08  0.3200E+02
     18.547  0.1978E-15  0.3200E+02
     18.637  0.0000E+00  0.3200E+02
     18.726  0.0000E+00  0.3200E+02
     18.816  0.2153E-10  0.3200E+02
     18.906  0.5939E-05  0.3200E+02
     18.996  0.3955E-02  0.3200E+02
     19.086  0.1713E-01  0.3200E+02
     19.175  0.1180E-02  0.3200E+02
     19.265  0.3605E-06  0.3200E+02
     19.355  0.2386E-12  0.3200E+02
     19.445  0.0000E+00  0.3200E+02
     19.535  0.0000E+00  0.3200E+02
     19.624  0.0000E+00  0.3200E+02
     19.714  0.0000E+00  0.3200E+02
     19.804  0.0000E+00  0.3200E+02
     19.894  0.0000E+00  0.3200E+02
     19.984  0.0000E+00  0.3200E+02
     20.073  0.0000E+00  0.3200E+02
     20.163  0.0000E+00  0.3200E+02
     20.253  0.0000E+00  0.3200E+02
     20.25293631     -6.68628077  301      3.82282006      1.00000000
     -6.686  0.0000E+00  0.0000E+00  0.0000E+00  0.0000E+00  0.0000E+00  0.0000E+00  0.0000E+00  0.0000E+00  0.0000E+00
     -6.596  0.0000E+00  0.0000E+00  0.0000E+00  0.0000E+00  0.0000E+00  0.0000E+00  0.0000E+00  0.0000E+00  0.0000E+00
     -6.507  0.0000E+00  0.0000E+00  0.0000E+00  0.0000E+00  0.0000E+00  0.0000E+00  0.0000E+00  0.0000E+00  0.0000E+00
     -6.417  0.0000E+00  0.0000E+00  0.0000E+00  0.0000E+00  0.0000E+00  0.0000E+00  0.0000E+00  0.0000E+00  0.0000E+00
     -6.327  0.0000E+00  0.0000E+00  0.0000E+00  0.0000E+00  0.0000E+00  0.0000E+00  0.0000E+00  0.0000E+00  0.0000E+00
     -6.237  0.0000E+00  0.0000E+00  0.0000E+00  0.0000E+00  0.0000E+00  0.0000E+00  0.0000E+00  0.0000E+00  0.0000E+00
     -6.147  0.0000E+00  0.0000E+00  0.0000E+00  0.0000E+00  0.0000E+00  0.0000E+00  0.0000E+00  0.0000E+00  0.0000E+00
     -6.058  0.0000E+00  0.0000E+00  0.0000E+00  0.0000E+00  0.0000E+00  0.0000E+00  0.0000E+00  0.0000E+00  0.0000E+00
     -5.968  0.0000E+00  0.0000E+00  0.0000E+00  0.0000E+00  0.0000E+00  0.0000E+00  0.0000E+00  0.0000E+00  0.0000E+00
     -5.878  0.0000E+00  0.0000E+00  0.0000E+00  0.0000E+00  0.0000E+00  0.0000E+00  0.0000E+00  0.0000E+00  0.0000E+00
     -5.788  0.0000E+00  0.0000E+00  0.0000E+00  0.0000E+00  0.0000E+00  0.0000E+00  0.0000E+00  0.0000E+00  0.0000E+00
     -5.699  0.1113E-12  0.3954E-20  0.3954E-20  0.3954E-20  0.4929E-23  0.4931E-23  0.4467E-35  0.4929E-23  0.1070E-34
     -5.609  0.1695E-06  0.1918E-12  0.2318E-12  0.1918E-12  0.2391E-15  0.2392E-15  0.3969E-16  0.2391E-15  0.5098E-27
     -5.519  0.6862E-03  0.1664E-07  0.2710E-07  0.1664E-07  0.2079E-10  0.2075E-10  0.1040E-10  0.2074E-10  0.4438E-22
     -5.429  0.4737E-01  0.4137E-05  0.1051E-04  0.4137E-05  0.6649E-08  0.4844E-08  0.6970E-08  0.4843E-08  0.1211E-19
     -5.339  0.1891E+00  0.4176E-04  0.6120E-04  0.4176E-04  0.2274E-06  0.6592E-07  0.1299E-06  0.6591E-07  0.1511E-13
     -5.250  0.3638E+00  0.9382E-04  0.2776E-03  0.9293E-04  0.6018E-06  0.6642E-06  0.8113E-06  0.6387E-06  0.2702E-09
     -5.160  0.4757E+00  0.2258E-03  0.4125E-03  0.1738E-03  0.2725E-05  0.2317E-05  0.2212E-05  0.8293E-06  0.1576E-07
     -5.070  0.6424E+00  0.2148E-03  0.7773E-03  0.1733E-03  0.3108E-05  0.4911E-05  0.5161E-05  0.3638E-05  0.1251E-07
     -4.980  0.9076E+00  0.4021E-03  0.8948E-03  0.2644E-03  0.9632E-05  0.1209E-04  0.8324E-05  0.4838E-05  0.3873E-07
     -4.890  0.1239E+01  0.3139E-03  0.1210E-02  0.2309E-03  0.1503E-04  0.1949E-04  0.1592E-04  0.1285E-04  0.2378E-06
     -4.801  0.2262E+01  0.3806E-03  0.1148E-02  0.4241E-03  0.4375E-04  0.3933E-04  0.2589E-04  0.2591E-04  0.1695E-05
     -4.711  0.2933E+01  0.1757E-03  0.9835E-03  0.2847E-03  0.4390E-04  0.3188E-04  0.5162E-04  0.1824E-04  0.3786E-05
     -4.621  0.2556E+01  0.4487E-04  0.3754E-03  0.1078E-03  0.1820E-04  0.1048E-04  0.7002E-04  0.3401E-05  0.5985E-05
     -4.531  0.2393E+00  0.1205E-05  0.1433E-04  0.4749E-05  0.8926E-06  0.4026E-06  0.7182E-05  0.7128E-07  0.7853E-06
     -4.441  0.2792E-03  0.6850E-09  0.6551E-08  0.3168E-08  0.5560E-09  0.2350E-09  0.7641E-08  0.2832E-10  0.1118E-08
     -4.352  0.1341E-08  0.2237E-14  0.9215E-14  0.5666E-14  0.1047E-14  0.4275E-15  0.3135E-13  0.4332E-16  0.6060E-14
     -4.262  0.1669E-16  0.2282E-22  0.6169E-33  0.5940E-33  0.2003E-31  0.2044E-31  0.2975E-21  0.2041E-31  0.8555E-22
     -4.172  0.0000E+00  0.0000E+00  0.0000E+00  0.0000E+00  0.0000E+00  0.0000E+00  0.0000E+00  0.0000E+00  0.0000E+00
     -4.082  0.0000E+00  0.0000E+00  0.0000E+00  0.0000E+00  0.0000E+00  0.0000E+00  0.0000E+00  0.0000E+00  0.0000E+00
     -3.992  0.0000E+00  0.0000E+00  0.0000E+00  0.0000E+00  0.0000E+00  0.0000E+00  0.0000E+00  0.0000E+00  0.0000E+00
     -3.903  0.0000E+00  0.0000E+00  0.0000E+00  0.0000E+00  0.0000E+00  0.0000E+00  0.0000E+00  0.0000E+00  0.0000E+00
     -3.813  0.0000E+00  0.0000E+00  0.0000E+00  0.0000E+00  0.0000E+00  0.0000E+00  0.0000E+00  0.0000E+00  0.0000E+00
     -3.723  0.0000E+00  0.0000E+00  0.0000E+00  0.0000E+00  0.0000E+00  0.0000E+00  0.0000E+00  0.0000E+00  0.0000E+00
     -3.633  0.0000E+00  0.0000E+00  0.0000E+00  0.0000E+00  0.0000E+00  0.0000E+00  0.0000E+00  0.0000E+00  0.0000E+00
     -3.543  0.0000E+00  0.0000E+00  0.0000E+00  0.0000E+00  0.0000E+00  0.0000E+00  0.0000E+00  0.0000E+00  0.0000E+00
     -3.454  0.0000E+00  0.0000E+00  0.0000E+00  0.0000E+00  0.0000E+00  0.0000E+00  0.0000E+00  0.0000E+00  0.0000E+00
     -3.364  0.0000E+00  0.0000E+00  0.0000E+00  0.0000E+00  0.0000E+00  0.0000E+00  0.0000E+00  0.0000E+00  0.0000E+00
     -3.274  0.0000E+00  0.0000E+00  0.0000E+00  0.0000E+00  0.0000E+00  0.0000E+00  0.0000E+00  0.0000E+00  0.0000E+00
     -3.184  0.0000E+00  0.0000E+00  0.0000E+00  0.0000E+00  0.0000E+00  0.0000E+00  0.0000E+00  0.0000E+00  0.0000E+00
     -3.094  0.0000E+00  0.0000E+00  0.0000E+00  0.0000E+00  0.0000E+00  0.0000E+00  0.0000E+00  0.0000E+00  0.0000E+00
     -3.005  0.0000E+00  0.0000E+00  0.0000E+00  0.0000E+00  0.0000E+00  0.0000E+00  0.0000E+00  0.0000E+00  0.0000E+00
     -2.915  0.0000E+00  0.0000E+00  0.0000E+00  0.0000E+00  0.0000E+00  0.0000E+00  0.0000E+00  0.0000E+00  0.0000E+00
     -2.825  0.0000E+00  0.0000E+00  0.0000E+00  0.0000E+00  0.0000E+00  0.0000E+00  0.0000E+00  0.0000E+00  0.0000E+00
     -2.735  0.0000E+00  0.0000E+00  0.0000E+00  0.0000E+00  0.0000E+00  0.0000E+00  0.0000E+00  0.0000E+00  0.0000E+00
     -2.645  0.0000E+00  0.0000E+00  0.0000E+00  0.0000E+00  0.0000E+00  0.0000E+00  0.0000E+00  0.0000E+00  0.0000E+00
     -2.556  0.0000E+00  0.0000E+00  0.0000E+00  0.0000E+00  0.0000E+00  0.0000E+00  0.0000E+00  0.0000E+00  0.0000E+00
     -2.466  0.0000E+00  0.0000E+00  0.0000E+00  0.0000E+00  0.0000E+00  0.0000E+00  0.0000E+00  0.0000E+00  0.0000E+00
     -2.376  0.0000E+00  0.0000E+00  0.0000E+00  0.0000E+00  0.0000E+00  0.0000E+00  0.0000E+00  0.0000E+00  0.0000E+00
     -2.286  0.0000E+00  0.0000E+00  0.0000E+00  0.0000E+00  0.0000E+00  0.0000E+00  0.0000E+00  0.0000E+00  0.0000E+00
     -2.196  0.0000E+00  0.0000E+00  0.0000E+00  0.0000E+00  0.0000E+00  0.0000E+00  0.0000E+00  0.0000E+00  0.0000E+00
     -2.107  0.0000E+00  0.0000E+00  0.0000E+00  0.0000E+00  0.0000E+00  0.0000E+00  0.0000E+00  0.0000E+00  0.0000E+00
     -2.017  0.0000E+00  0.0000E+00  0.0000E+00  0.0000E+00  0.0000E+00  0.0000E+00  0.0000E+00  0.0000E+00  0.0000E+00
     -1.927  0.0000E+00  0.0000E+00  0.0000E+00  0.0000E+00  0.0000E+00  0.0000E+00  0.0000E+00  0.0000E+00  0.0000E+00
     -1.837  0.0000E+00  0.0000E+00  0.0000E+00  0.0000E+00  0.0000E+00  0.0000E+00  0.0000E+00  0.0000E+00  0.0000E+00
     -1.747  0.0000E+00  0.0000E+00  0.0000E+00  0.0000E+00  0.0000E+00  0.0000E+00  0.0000E+00  0.0000E+00  0.0000E+00
     -1.658  0.0000E+00  0.0000E+00  0.0000E+00  0.0000E+00  0.0000E+00  0.0000E+00  0.0000E+00  0.0000E+00  0.0000E+00
     -1.568  0.0000E+00  0.0000E+00  0.0000E+00  0.0000E+00  0.0000E+00  0.0000E+00  0.0000E+00  0.0000E+00  0.0000E+00
     -1.478  0.0000E+00  0.0000E+00  0.0000E+00  0.0000E+00  0.0000E+00  0.0000E+00  0.0000E+00  0.0000E+00  0.0000E+00
     -1.388  0.0000E+00  0.0000E+00  0.0000E+00  0.0000E+00  0.0000E+00  0.0000E+00  0.0000E+00  0.0000E+00  0.0000E+00
     -1.298  0.0000E+00  0.0000E+00  0.0000E+00  0.0000E+00  0.0000E+00  0.0000E+00  0.0000E+00  0.0000E+00  0.0000E+00
     -1.209  0.0000E+00  0.0000E+00  0.0000E+00  0.0000E+00  0.0000E+00  0.0000E+00  0.0000E+00  0.0000E+00  0.0000E+00
     -1.119  0.0000E+00  0.0000E+00  0.0000E+00  0.0000E+00  0.0000E+00  0.0000E+00  0.0000E+00  0.0000E+00  0.0000E+00
     -1.029  0.0000E+00  0.0000E+00  0.0000E+00  0.0000E+00  0.0000E+00  0.0000E+00  0.0000E+00  0.0000E+00  0.0000E+00
     -0.939  0.0000E+00  0.0000E+00  0.0000E+00  0.0000E+00  0.0000E+00  0.0000E+00  0.0000E+00  0.0000E+00  0.0000E+00
     -0.849  0.0000E+00  0.0000E+00  0.0000E+00  0.0000E+00  0.0000E+00  0.0000E+00  0.0000E+00  0.0000E+00  0.0000E+00
     -0.760  0.0000E+00  0.0000E+00  0.0000E+00  0.0000E+00  0.0000E+00  0.0000E+00  0.0000E+00  0.0000E+00  0.0000E+00
     -0.670  0.0000E+00  0.0000E+00  0.0000E+00  0.0000E+00  0.0000E+00  0.0000E+00  0.0000E+00  0.0000E+00  0.0000E+00
     -0.580  0.0000E+00  0.0000E+00  0.0000E+00  0.0000E+00  0.0000E+00  0.0000E+00  0.0000E+00  0.0000E+00  0.0000E+00
     -0.490  0.0000E+00  0.0000E+00  0.0000E+00  0.0000E+00  0.0000E+00  0.0000E+00  0.0000E+00  0.0000E+00  0.0000E+00
     -0.400  0.0000E+00  0.0000E+00  0.0000E+00  0.0000E+00  0.0000E+00  0.0000E+00  0.0000E+00  0.0000E+00  0.0000E+00
     -0.311  0.1790E-38  0.2471E-16  0.2471E-16  0.2471E-16  0.1292E-37  0.1580E-36  0.4311E-39  0.2670E-36  0.1688E-37
     -0.221  0.1593E-17  0.4931E-09  0.4931E-09  0.4931E-09  0.3796E-19  0.1088E-21  0.1026E-18  0.1088E-21  0.3503E-30
     -0.131  0.4012E-10  0.1922E-04  0.1922E-04  0.1922E-04  0.9557E-12  0.2740E-14  0.2584E-11  0.2740E-14  0.1783E-20
     -0.041  0.1971E-05  0.2282E-02  0.2287E-02  0.2282E-02  0.4690E-07  0.1444E-09  0.1268E-06  0.1444E-09  0.8939E-13
      0.049  0.3020E-03  0.1500E-01  0.1562E-01  0.1500E-01  0.6572E-05  0.1986E-06  0.1825E-04  0.1909E-06  0.1612E-07
      0.138  0.1991E-02  0.4258E-01  0.4036E-01  0.4228E-01  0.1323E-04  0.1362E-04  0.7296E-04  0.1018E-04  0.7267E-05
      0.228  0.2693E-02  0.5250E-01  0.4740E-01  0.5150E-01  0.2157E-04  0.2722E-04  0.1368E-03  0.1601E-04  0.2366E-04
      0.318  0.3200E-02  0.4736E-01  0.4785E-01  0.4517E-01  0.4616E-04  0.1138E-04  0.2154E-03  0.1324E-04  0.8653E-05
      0.408  0.1345E-01  0.8760E-01  0.1067E+00  0.6910E-01  0.1282E-03  0.1833E-04  0.2852E-03  0.2898E-04  0.7041E-04
      0.498  0.1276E-01  0.1337E+00  0.1110E+00  0.1312E+00  0.1519E-03  0.8889E-04  0.7975E-03  0.2897E-04  0.8498E-04
      0.587  0.1359E-01  0.1117E+00  0.6004E-01  0.1138E+00  0.8674E-04  0.5655E-04  0.7548E-03  0.4209E-04  0.1766E-04
      0.677  0.3549E-01  0.1311E+00  0.2784E+00  0.9891E-01  0.1182E-03  0.1075E-03  0.5728E-03  0.6283E-04  0.1020E-03
      0.767  0.3235E-01  0.1597E+00  0.4500E+00  0.1223E+00  0.2065E-03  0.2860E-03  0.1051E-02  0.5332E-04  0.2057E-03
      0.857  0.1681E-01  0.5373E-01  0.1623E+00  0.4067E-01  0.9173E-04  0.1124E-03  0.2934E-03  0.5160E-04  0.5032E-04
      0.946  0.4021E-01  0.6695E-01  0.2034E+00  0.2718E-01  0.7435E-04  0.1758E-03  0.8438E-04  0.5255E-04  0.5301E-04
      1.036  0.2283E-01  0.4355E-01  0.1618E+00  0.2766E-01  0.4302E-04  0.2369E-03  0.1247E-03  0.7016E-04  0.1387E-04
      1.126  0.1771E-01  0.4544E-01  0.7935E-01  0.3407E-01  0.8949E-04  0.9211E-04  0.2522E-03  0.5185E-04  0.9937E-05
      1.216  0.1482E-01  0.4542E-01  0.1482E+00  0.9377E-01  0.2630E-03  0.3265E-03  0.3413E-03  0.2410E-03  0.2566E-04
      1.306  0.4939E-02  0.9836E-01  0.1321E+00  0.1592E+00  0.4667E-03  0.2985E-03  0.1064E-02  0.2264E-03  0.1195E-03
      1.395  0.2113E-01  0.3195E-01  0.9225E-01  0.1269E+00  0.3847E-03  0.1584E-03  0.1452E-03  0.2025E-03  0.1791E-04
      1.485  0.3353E-01  0.6601E-01  0.2455E+00  0.9893E-01  0.2508E-03  0.6416E-03  0.3305E-03  0.4854E-03  0.1193E-04
      1.575  0.2209E-01  0.1504E+00  0.2045E+00  0.1579E+00  0.3696E-03  0.5221E-03  0.1034E-02  0.3970E-03  0.9021E-04
      1.665  0.1136E-01  0.9787E-01  0.1546E+00  0.1188E+00  0.2520E-03  0.5167E-03  0.6422E-03  0.3657E-03  0.1684E-03
      1.755  0.6834E-02  0.1465E+00  0.1474E+00  0.3461E+00  0.7553E-03  0.4925E-03  0.8588E-03  0.8008E-03  0.2239E-03
      1.844  0.9869E-02  0.2598E+00  0.1836E+00  0.1854E+00  0.2688E-03  0.7401E-03  0.1239E-02  0.5726E-03  0.2433E-03
      1.934  0.2399E-02  0.1434E+00  0.4558E-01  0.1457E+00  0.1955E-03  0.2317E-03  0.4180E-03  0.2380E-03  0.1947E-03
      2.024  0.8702E-02  0.1343E+00  0.1276E+00  0.2847E+00  0.4957E-03  0.4135E-03  0.3949E-03  0.9240E-03  0.3198E-03
      2.114  0.3555E-01  0.3043E+00  0.2439E+00  0.4420E+00  0.8121E-03  0.8200E-03  0.9277E-03  0.1347E-02  0.6907E-03
      2.204  0.1094E-01  0.2410E+00  0.9584E-01  0.3335E+00  0.7662E-03  0.5327E-03  0.7884E-03  0.1075E-02  0.4822E-03
      2.293  0.1006E-01  0.2053E+00  0.5179E-01  0.2043E+00  0.5148E-03  0.2500E-03  0.5907E-03  0.3060E-03  0.6865E-03
      2.383  0.9004E-02  0.2279E+00  0.3579E-01  0.1455E+00  0.1273E-03  0.5940E-03  0.3123E-03  0.2696E-03  0.2982E-03
      2.473  0.4966E-02  0.2303E+00  0.1685E+00  0.2575E+00  0.3454E-03  0.8513E-03  0.3711E-03  0.1203E-02  0.3424E-03
      2.563  0.7694E-02  0.3178E+00  0.2401E+00  0.2713E+00  0.4677E-03  0.7964E-03  0.7846E-03  0.9321E-03  0.6885E-03
      2.653  0.2582E-02  0.1900E+00  0.1678E+00  0.8874E-01  0.9490E-04  0.6850E-03  0.5411E-03  0.4725E-03  0.1804E-03
      2.742  0.3219E-02  0.2014E+00  0.1257E+00  0.1951E+00  0.1709E-03  0.6733E-03  0.1410E-03  0.6567E-03  0.2017E-03
      2.832  0.4263E-02  0.3354E+00  0.1259E+00  0.2058E+00  0.7688E-04  0.6709E-03  0.5227E-03  0.3050E-03  0.4768E-03
      2.922  0.8028E-02  0.1535E+00  0.1192E+00  0.9950E-01  0.1460E-03  0.2783E-03  0.2322E-03  0.1259E-03  0.8561E-04
      3.012  0.9684E-02  0.1592E+00  0.1894E+00  0.1299E+00  0.2746E-03  0.7533E-03  0.1394E-03  0.6441E-03  0.5540E-04
      3.102  0.3069E-02  0.2211E+00  0.1014E+00  0.1452E+00  0.8839E-04  0.5335E-03  0.1340E-03  0.2495E-03  0.2678E-03
      3.191  0.3580E-02  0.6514E-01  0.5897E-01  0.6223E-01  0.1870E-03  0.1709E-03  0.4446E-04  0.1600E-03  0.6293E-04
      3.281  0.4075E-03  0.1034E+00  0.3732E-01  0.1034E+00  0.9989E-04  0.2470E-03  0.7537E-05  0.2470E-03  0.6167E-04
      3.371  0.2443E-06  0.7513E-01  0.7268E-02  0.7513E-01  0.1838E-04  0.8165E-04  0.6878E-06  0.8165E-04  0.9656E-04
      3.461  0.3317E-12  0.3097E-01  0.1666E-01  0.3097E-01  0.2207E-04  0.2258E-04  0.8419E-06  0.2258E-04  0.1172E-04
      3.551  0.1756E-14  0.6317E-01  0.2795E-01  0.6317E-01  0.3425E-04  0.3425E-04  0.1307E-05  0.3425E-04  0.2509E-04
      3.640  0.3524E-16  0.7989E-02  0.6584E-02  0.7989E-02  0.6872E-06  0.6872E-06  0.2622E-07  0.6872E-06  0.9752E-06
      3.730  0.2372E-20  0.2643E-03  0.2641E-03  0.2643E-03  0.4624E-10  0.4624E-10  0.1764E-11  0.4624E-10  0.1481E-09
      3.820  0.3230E-27  0.4536E-07  0.4536E-07  0.4536E-07  0.6291E-17  0.6296E-17  0.2400E-18  0.6291E-17  0.4754E-16
      3.910  0.4306E-37  0.1640E-13  0.1640E-13  0.1640E-13  0.3944E-36  0.1307E-36  0.2802E-36  0.6610E-36  0.2227E-36
      4.000  0.8983E-14  0.7613E-38  0.5735E-39  0.5977E-38  0.1176E-26  0.1929E-31  0.3138E-14  0.1919E-31  0.1022E-36
      4.089  0.2289E-07  0.1940E-31  0.1461E-32  0.1523E-31  0.2997E-20  0.4917E-25  0.7998E-08  0.4891E-25  0.2605E-30
      4.179  0.1233E-03  0.1045E-27  0.7870E-29  0.8202E-28  0.1614E-16  0.2647E-21  0.4307E-04  0.2634E-21  0.1403E-26
      4.269  0.2658E-02  0.2343E-18  0.4631E-12  0.2343E-18  0.3480E-15  0.5773E-20  0.9287E-03  0.5743E-20  0.3025E-25
      4.359  0.8702E-03  0.2330E-10  0.1269E-06  0.2330E-10  0.1258E-11  0.6411E-14  0.3040E-03  0.6411E-14  0.1117E-24
      4.449  0.1274E-02  0.3172E-05  0.8423E-04  0.3172E-05  0.1713E-06  0.8729E-09  0.4684E-03  0.8729E-09  0.9037E-21
      4.538  0.1265E-01  0.1107E-02  0.4463E-03  0.1107E-02  0.5976E-04  0.3045E-06  0.4591E-02  0.3045E-06  0.9104E-18
      4.628  0.1998E-01  0.2991E-02  0.2524E-03  0.2991E-02  0.1615E-03  0.8231E-06  0.7180E-02  0.8230E-06  0.4005E-11
      4.718  0.9685E-03  0.2477E-03  0.9108E-05  0.1196E-03  0.6459E-05  0.3292E-07  0.3491E-03  0.3292E-07  0.5285E-07
      4.808  0.8298E-02  0.5777E-02  0.2318E-08  0.2165E-07  0.1830E-08  0.8430E-11  0.3037E-02  0.7625E-11  0.2383E-05
      4.898  0.5317E-02  0.3536E-02  0.2421E-04  0.5762E-04  0.1416E-04  0.1112E-06  0.1950E-02  0.6384E-07  0.1435E-05
      4.987  0.3145E-01  0.1002E-01  0.2086E-02  0.3559E-02  0.8102E-03  0.1276E-04  0.1188E-01  0.4992E-05  0.2646E-05
      5.077  0.3415E-01  0.1295E-01  0.2190E-02  0.2865E-02  0.6344E-03  0.1677E-04  0.1290E-01  0.4606E-05  0.4131E-05
      5.167  0.2100E-01  0.3872E-02  0.1921E-02  0.3668E-02  0.1635E-02  0.3191E-05  0.7948E-02  0.2944E-05  0.8368E-07
      5.257  0.1335E-01  0.1856E-02  0.8777E-03  0.1828E-02  0.8189E-03  0.1459E-05  0.3815E-02  0.1454E-05  0.1836E-07
      5.347  0.1424E-01  0.1203E-01  0.5128E-04  0.1612E-03  0.7386E-03  0.2258E-05  0.4597E-02  0.1833E-07  0.7846E-05
      5.436  0.4861E-01  0.4076E-01  0.2033E-03  0.3573E-02  0.5352E-02  0.7389E-05  0.1925E-01  0.3712E-06  0.2458E-04
      5.526  0.1159E-01  0.4375E-02  0.4613E-03  0.1768E-02  0.1806E-02  0.1695E-04  0.4140E-02  0.7836E-05  0.1830E-05
      5.616  0.5724E-01  0.1137E-01  0.6779E-02  0.2023E-02  0.1922E-02  0.3486E-03  0.1138E-01  0.2528E-03  0.7363E-05
      5.706  0.8211E-01  0.2825E-01  0.8831E-02  0.4454E-02  0.1038E-01  0.2333E-03  0.2559E-01  0.1599E-03  0.1778E-04
      5.796  0.9425E-01  0.3960E-01  0.1171E-01  0.3431E-02  0.1148E-01  0.7239E-03  0.2692E-01  0.6752E-03  0.2599E-04
      5.885  0.1062E+00  0.2594E-01  0.7139E-02  0.4652E-02  0.1416E-01  0.1332E-02  0.1447E-01  0.1329E-02  0.1211E-04
      5.975  0.9881E-01  0.3134E-01  0.8092E-02  0.1961E-02  0.1109E-01  0.1814E-02  0.1260E-01  0.1810E-02  0.1496E-04
      6.065  0.1664E+00  0.1498E-01  0.3136E-01  0.2137E-02  0.2131E-01  0.2281E-02  0.1397E-01  0.2281E-02  0.4661E-05
      6.155  0.2641E+00  0.3079E-01  0.3940E-01  0.3788E-02  0.4900E-01  0.4092E-02  0.2109E-01  0.3963E-02  0.1940E-04
      6.245  0.1971E+00  0.7994E-01  0.2901E-01  0.3031E-02  0.4129E-01  0.5571E-02  0.3642E-01  0.1241E-02  0.5522E-03
      6.334  0.1098E+00  0.3914E-01  0.1441E-01  0.4837E-02  0.5004E-01  0.5918E-02  0.1913E-01  0.5907E-03  0.2518E-02
      6.424  0.3228E-01  0.2411E-01  0.3082E-02  0.6539E-02  0.6009E-01  0.1113E-01  0.7389E-02  0.5983E-02  0.4728E-02
      6.514  0.3642E-01  0.2160E-01  0.3124E-02  0.1317E-01  0.6007E-01  0.1372E-01  0.9670E-02  0.9426E-02  0.5682E-02
      6.604  0.8791E-01  0.7741E-01  0.1642E-01  0.1860E-01  0.3859E-01  0.2783E-01  0.2299E-01  0.1490E-01  0.9703E-02
      6.694  0.3660E-01  0.7731E-01  0.1161E-01  0.1671E-01  0.1129E-01  0.2368E-01  0.1508E-01  0.2163E-01  0.1941E-01
      6.783  0.4377E-01  0.6274E-01  0.1188E-01  0.1690E-01  0.9396E-02  0.3947E-01  0.9785E-02  0.2605E-01  0.2741E-01
      6.873  0.4299E-01  0.1437E-01  0.2219E-01  0.8835E-02  0.4938E-02  0.1201E-01  0.8348E-02  0.7406E-02  0.7123E-02
      6.963  0.2949E-01  0.3247E-01  0.9573E-02  0.9324E-02  0.1531E-01  0.8112E-02  0.2019E-02  0.4478E-02  0.1135E-01
      7.053  0.4380E-01  0.7063E-01  0.1306E-01  0.3256E-01  0.6083E-01  0.1455E-01  0.7984E-02  0.6719E-02  0.1554E-01
      7.143  0.3317E-01  0.8430E-01  0.1376E-01  0.5034E-01  0.6616E-01  0.2430E-01  0.1105E-01  0.1222E-01  0.7865E-02
      7.232  0.4834E-01  0.1177E+00  0.9369E-02  0.3843E-01  0.2941E-01  0.2857E-01  0.7988E-02  0.1739E-01  0.1927E-01
      7.322  0.2365E-01  0.4784E-01  0.6553E-02  0.3010E-01  0.4735E-02  0.1269E-01  0.7722E-02  0.9436E-02  0.7502E-02