    4    4    1    1
  0.1963467E+02  0.4806912E-09  0.4806912E-09  0.4806912E-09  0.5000000E-15
  1.000000000000000E-004
  CAR 
 unknown system                          
      8     47     16
 
  0.0000000E+00  0.0000000E+00  0.0000000E+00  0.1000000E-02
    1       -5.461771   1.000000
    2        3.574613   1.000000
    3        3.574613   1.000000
    4        3.574614   1.000000
    5        5.252315   0.000000
    6        6.222399   0.000000
    7        6.222399   0.000000
    8        6.222402   0.000000
    9        9.639593   0.000000
   10        9.639593   0.000000
   11        9.639599   0.000000
   12       10.042995   0.000000
   13       10.042995   0.000000
   14       11.587756   0.000000
   15       16.725048   0.000000
   16       19.028426   0.000000
 
  0.1000000E+00  0.0000000E+00  0.0000000E+00  0.8000000E-02
    1       -5.413253   1.000000
    2        2.864653   1.000000
    3        3.470857   1.000000
    4        3.470859   1.000000
    5        5.598123   0.000000
    6        6.398827   0.000000
    7        6.398829   0.000000
    8        6.690641   0.000000
    9        8.945439   0.000000
   10        8.945443   0.000000
   11        9.676532   0.000000
   12       11.021065   0.000000
   13       11.021067   0.000000
   14       11.703251   0.000000
   15       16.731000   0.000000
   16       18.176804   0.000000
 
  0.2000000E+00  0.0000000E+00  0.0000000E+00  0.8000000E-02
    1       -5.277715   1.000000
    2        1.777485   1.000000
    3        3.248564   1.000000
    4        3.248565   1.000000
    5        5.779414   0.000000
    6        6.694124   0.000000
    7        6.694128   0.000000
    8        7.816573   0.000000
    9        8.568179   0.000000
   10        8.568182   0.000000
   11        9.819163   0.000000
   12       12.115637   0.000000
   13       12.384181   0.000000
   14       12.384184   0.000000
   15       16.074423   0.000000
   16       16.720666   0.000000
 
  0.3000000E+00  0.0000000E+00  0.0000000E+00  0.8000000E-02
    1       -5.089018   1.000000
    2        0.837406   1.000000
    3        3.033128   1.000000
    4        3.033129   1.000000
    5        5.865912   0.000000
    6        6.674186   0.000000
    7        6.674190   0.000000
    8        8.696124   0.000000
    9        8.983034   0.000000
   10        8.983036   0.000000
   11       10.260670   0.000000
   12       12.927686   0.000000
   13       13.816768   0.000000
   14       13.816772   0.000000
   15       14.816591   0.000000
   16       15.065935   0.000000
 
  0.4000000E+00  0.0000000E+00  0.0000000E+00  0.8000000E-02
    1       -4.912942   1.000000
    2        0.195019   1.000000
    3        2.888685   1.000000
    4        2.888686   1.000000
    5        5.919292   0.000000
    6        6.496568   0.000000
    7        6.496572   0.000000
    8        9.012124   0.000000
    9        9.946946   0.000000
   10        9.946948   0.000000
   11       11.106174   0.000000
   12       13.137245   0.000000
   13       13.137248   0.000000
   14       13.228989   0.000000
   15       14.473929   0.000000
   16       15.848717   0.000000
 
  0.5000000E+00  0.0000000E+00  0.0000000E+00  0.4000000E-02
    1       -4.838491   1.000000
    2       -0.037097   1.000000
    3        2.838662   1.000000
    4        2.838663   1.000000
    5        5.938308   0.000000
    6        6.417491   0.000000
    7        6.417495   0.000000
    8        9.073303   0.000000
    9       10.746283   0.000000
   10       10.746284   0.000000
   11       11.987384   0.000000
   12       12.158931   0.000000
   13       12.158935   0.000000
   14       12.312564   0.000000
   15       15.199929   0.000000
   16       17.370526   0.000000
 
  0.1000000E+00  0.1000000E+00  0.0000000E+00  0.6000000E-02
    1       -5.397224   1.000000
    2        2.960189   1.000000
    3        3.255450   1.000000
    4        3.255451   1.000000
    5        5.887426   0.000000
    6        6.211985   0.000000
    7        6.695931   0.000000
    8        6.695933   0.000000
    9        8.335788   0.000000
   10        9.845329   0.000000
   11        9.845333   0.000000
   12       10.163217   0.000000
   13       11.640028   0.000000
   14       11.732094   0.000000
   15       16.772365   0.000000
   16       17.938833   0.000000
 
  0.2000000E+00  0.1000000E+00  0.0000000E+00  0.2400000E-01
    1       -5.291159   1.000000
    2        2.085548   1.000000
    3        2.985043   1.000000
    4        3.144561   1.000000
    5        6.080473   0.000000
    6        6.379417   0.000000
    7        7.108623   0.000000
    8        7.253275   0.000000
    9        8.215241   0.000000
   10        9.409952   0.000000
   11       10.028679   0.000000
   12       11.282202   0.000000
   13       12.018632   0.000000
   14       12.750042   0.000000
   15       16.180371   0.000000
   16       16.577097   0.000000
 
  0.3000000E+00  0.1000000E+00  0.0000000E+00  0.2400000E-01
    1       -5.119688   1.000000
    2        1.140880   1.000000
    3        2.773499   1.000000
    4        2.947950   1.000000
    5        6.074566   0.000000
    6        6.603358   0.000000
    7        7.199158   0.000000
    8        7.536406   0.000000
    9        9.105285   0.000000
   10        9.570374   0.000000
   11       10.304386   0.000000
   12       12.675301   0.000000
   13       12.709454   0.000000
   14       14.115092   0.000000
   15       14.739034   0.000000
   16       14.863576   0.000000
 
  0.4000000E+00  0.1000000E+00  0.0000000E+00  0.2400000E-01
    1       -4.936484   1.000000
    2        0.419937   1.000000
    3        2.668659   1.000000
    4        2.715636   1.000000
    5        6.040838   0.000000
    6        6.574125   0.000000
    7        6.969619   0.000000
    8        8.355269   0.000000
    9        9.597411   0.000000
   10       10.373776   0.000000
   11       11.063013   0.000000
   12       12.939764   0.000000
   13       13.074975   0.000000
   14       13.939260   0.000000
   15       14.657107   0.000000
   16       14.940928   0.000000
 
  0.5000000E+00  0.1000000E+00  0.0000000E+00  0.2400000E-01
    1       -4.823559   1.000000
    2        0.056071   1.000000
    3        2.533091   1.000000
    4        2.684792   1.000000
    5        6.053972   0.000000
    6        6.549934   0.000000
    7        6.747629   0.000000
    8        9.244845   0.000000
    9        9.904356   0.000000
   10       10.778070   0.000000
   11       11.668284   0.000000
   12       12.281346   0.000000
   13       12.320047   0.000000
   14       13.627544   0.000000
   15       15.077779   0.000000
   16       16.408335   0.000000
 
 -0.4000000E+00  0.1000000E+00  0.0000000E+00  0.2400000E-01
    1       -4.848286   1.000000
    2        0.130519   1.000000
    3        2.445577   1.000000
    4        2.815091   1.000000
    5        6.118512   0.000000
    6        6.603354   0.000000
    7        6.660487   0.000000
    8        9.279935   0.000000
    9        9.685774   0.000000
   10       10.448029   0.000000
   11       11.257711   0.000000
   12       12.453531   0.000000
   13       13.362287   0.000000
   14       13.445557   0.000000
   15       14.710973   0.000000
   16       15.891060   0.000000
 
 -0.3000000E+00  0.1000000E+00  0.0000000E+00  0.2400000E-01
    1       -4.994615   1.000000
    2        0.622170   1.000000
    3        2.477140   1.000000
    4        3.035117   1.000000
    5        6.138001   0.000000
    6        6.712991   0.000000
    7        6.802491   0.000000
    8        8.591523   0.000000
    9        8.663915   0.000000
   10       10.141362   0.000000
   11       10.933493   0.000000
   12       12.905075   0.000000
   13       13.410664   0.000000
   14       13.709551   0.000000
   15       14.787668   0.000000
   16       15.232793   0.000000
 
 -0.2000000E+00  0.1000000E+00  0.0000000E+00  0.2400000E-01
    1       -5.181946   1.000000
    2        1.415660   1.000000
    3        2.642882   1.000000
    4        3.292457   1.000000
    5        6.064566   0.000000
    6        6.726766   0.000000
    7        7.054555   0.000000
    8        7.817540   0.000000
    9        7.979061   0.000000
   10        9.693192   0.000000
   11       10.196222   0.000000
   12       12.238730   0.000000
   13       12.465346   0.000000
   14       13.700499   0.000000
   15       14.617831   0.000000
   16       16.408396   0.000000
 
 -0.1000000E+00  0.1000000E+00  0.0000000E+00  0.1200000E-01
    1       -5.335831   1.000000
    2        2.298784   1.000000
    3        2.984328   1.000000
    4        3.483206   1.000000
    5        5.877629   0.000000
    6        6.469462   0.000000
    7        6.859010   0.000000
    8        7.165714   0.000000
    9        8.208203   0.000000
   10        9.097098   0.000000
   11       10.006992   0.000000
   12       11.183806   0.000000
   13       11.910262   0.000000
   14       12.266263   0.000000
   15       16.218526   0.000000
   16       17.437790   0.000000
 
  0.2000000E+00  0.2000000E+00  0.0000000E+00  0.6000000E-02
    1       -5.219093   1.000000
    2        2.052662   1.000000
    3        2.677644   1.000000
    4        2.677645   1.000000
    5        6.017414   0.000000
    6        6.181378   0.000000
    7        7.694666   0.000000
    8        7.694668   0.000000
    9        8.189470   0.000000
   10       10.483810   0.000000
   11       10.483814   0.000000
   12       10.521036   0.000000
   13       12.139931   0.000000
   14       13.403030   0.000000
   15       16.187993   0.000000
   16       16.187998   0.000000
 
  0.3000000E+00  0.2000000E+00  0.0000000E+00  0.2400000E-01
    1       -5.078465   1.000000
    2        1.398377   1.000000
    3        2.443509   1.000000
    4        2.485197   1.000000
    5        5.735479   0.000000
    6        6.381116   0.000000
    7        7.757937   0.000000
    8        8.032816   0.000000
    9        9.265810   0.000000
   10       10.351065   0.000000
   11       10.848792   0.000000
   12       11.805667   0.000000
   13       12.592573   0.000000
   14       14.260209   0.000000
   15       14.822145   0.000000
   16       14.915066   0.000000
 
  0.4000000E+00  0.2000000E+00  0.0000000E+00  0.2400000E-01
    1       -4.910592   1.000000
    2        0.733907   1.000000
    3        2.223357   1.000000
    4        2.331611   1.000000
    5        5.631169   0.000000
    6        7.034181   0.000000
    7        7.673270   0.000000
    8        7.883215   0.000000
    9       10.244083   0.000000
   10       10.946502   0.000000
   11       11.308769   0.000000
   12       12.725454   0.000000
   13       12.970754   0.000000
   14       13.693837   0.000000
   15       13.851002   0.000000
   16       15.724059   0.000000
 
  0.5000000E+00  0.2000000E+00  0.0000000E+00  0.2400000E-01
    1       -4.783091   1.000000
    2        0.316047   1.000000
    3        1.948309   1.000000
    4        2.356881   1.000000
    5        5.676250   0.000000
    6        7.501955   0.000000
    7        7.596548   0.000000
    8        8.153905   0.000000
    9       10.432969   0.000000
   10       10.884183   0.000000
   11       11.621950   0.000000
   12       12.419343   0.000000
   13       12.605106   0.000000
   14       14.584754   0.000000
   15       15.335679   0.000000
   16       15.545179   0.000000
 
 -0.4000000E+00  0.2000000E+00  0.0000000E+00  0.2400000E-01
    1       -4.763689   1.000000
    2        0.251182   1.000000
    3        1.768934   1.000000
    4        2.514873   1.000000
    5        5.845988   0.000000
    6        7.397464   0.000000
    7        7.442565   0.000000
    8        9.425904   0.000000
    9        9.594236   0.000000
   10        9.881334   0.000000
   11       11.015191   0.000000
   12       13.372270   0.000000
   13       13.869906   0.000000
   14       14.097783   0.000000
   15       14.777380   0.000000
   16       16.235855   0.000000
 
 -0.3000000E+00  0.2000000E+00  0.0000000E+00  0.2400000E-01
    1       -4.864056   1.000000
    2        0.532635   1.000000
    3        1.760556   1.000000
    4        2.778911   1.000000
    5        6.090961   0.000000
    6        7.340490   0.000000
    7        7.372786   0.000000
    8        8.389401   0.000000
    9        8.856583   0.000000
   10       10.761345   0.000000
   11       11.042012   0.000000
   12       12.733588   0.000000
   13       13.631265   0.000000
   14       13.909508   0.000000
   15       15.354800   0.000000
   16       15.531116   0.000000
 
 -0.2000000E+00  0.2000000E+00  0.0000000E+00  0.1200000E-01
    1       -5.027458   1.000000
    2        0.996416   1.000000
    3        2.027543   1.000000
    4        3.083331   1.000000
    5        6.255991   0.000000
    6        7.203867   0.000000
    7        7.311718   0.000000
    8        7.710762   0.000000
    9        8.007312   0.000000
   10       10.725134   0.000000
   11       11.044099   0.000000
   12       12.607276   0.000000
   13       12.894436   0.000000
   14       13.094492   0.000000
   15       15.142440   0.000000
   16       16.093057   0.000000
 
  0.3000000E+00  0.3000000E+00  0.0000000E+00  0.6000000E-02
    1       -4.975690   1.000000
    2        1.295918   1.000000
    3        2.178866   1.000000
    4        2.178867   1.000000
    5        5.148924   0.000000
    6        6.145571   0.000000
    7        8.811982   0.000000
    8        8.811985   0.000000
    9        9.515992   0.000000
   10       11.112170   0.000000
   11       11.555360   0.000000
   12       11.555363   0.000000
   13       12.731400   0.000000
   14       14.575660   0.000000
   15       14.575665   0.000000
   16       14.650285   0.000000
 
  0.4000000E+00  0.3000000E+00  0.0000000E+00  0.2400000E-01
    1       -4.842422   1.000000
    2        0.918784   1.000000
    3        1.903830   1.000000
    4        2.037723   1.000000
    5        4.985144   0.000000
    6        6.332396   0.000000
    7        8.914716   0.000000
    8        9.005321   0.000000
    9       10.658175   0.000000
   10       11.564363   0.000000
   11       11.948532   0.000000
   12       12.331780   0.000000
   13       12.978659   0.000000
   14       13.641544   0.000000
   15       13.709885   0.000000
   16       15.307678   0.000000
 
  0.5000000E+00  0.3000000E+00  0.0000000E+00  0.2400000E-01
    1       -4.729101   1.000000
    2        0.635857   1.000000
    3        1.498618   1.000000
    4        2.039380   1.000000
    5        5.151315   0.000000
    6        6.976148   0.000000
    7        8.756360   0.000000
    8        8.787672   0.000000
    9       11.080277   0.000000
   10       11.373261   0.000000
   11       11.663199   0.000000
   12       12.626981   0.000000
   13       12.936542   0.000000
   14       14.403802   0.000000
   15       14.651347   0.000000
   16       15.615997   0.000000
 
 -0.4000000E+00  0.3000000E+00  0.0000000E+00  0.2400000E-01
    1       -4.689282   1.000000
    2        0.553717   1.000000
    3        1.188257   1.000000
    4        2.184133   1.000000
    5        5.421036   0.000000
    6        8.038818   0.000000
    7        8.496301   0.000000
    8        8.592912   0.000000
    9        9.673678   0.000000
   10       10.240536   0.000000
   11       11.671495   0.000000
   12       13.482908   0.000000
   13       14.286623   0.000000
   14       14.531159   0.000000
   15       15.317700   0.000000
   16       16.231445   0.000000
 
 -0.3000000E+00  0.3000000E+00  0.0000000E+00  0.1200000E-01
    1       -4.744240   1.000000
    2        0.546578   1.000000
    3        1.250782   1.000000
    4        2.450291   1.000000
    5        5.750609   0.000000
    6        8.151479   0.000000
    7        8.324106   0.000000
    8        8.415220   0.000000
    9        9.295462   0.000000
   10        9.416227   0.000000
   11       11.457889   0.000000
   12       13.578099   0.000000
   13       14.043921   0.000000
   14       14.699139   0.000000
   15       15.526585   0.000000
   16       15.970126   0.000000
 
  0.4000000E+00  0.4000000E+00  0.0000000E+00  0.6000000E-02
    1       -4.754494   1.000000
    2        0.789513   1.000000
    3        1.859984   1.000000
    4        1.859985   1.000000
    5        4.481155   0.000000
    6        6.118691   0.000000
    7        9.940869   0.000000
    8        9.940872   0.000000
    9       11.070060   0.000000
   10       11.915490   0.000000
   11       12.226134   0.000000
   12       12.226137   0.000000
   13       13.319769   0.000000
   14       14.029896   0.000000
   15       14.029901   0.000000
   16       14.054617   0.000000
 
  0.5000000E+00  0.4000000E+00  0.0000000E+00  0.2400000E-01
    1       -4.681854   1.000000
    2        0.678267   1.000000
    3        1.560585   1.000000
    4        1.825437   1.000000
    5        4.560816   0.000000
    6        6.307454   0.000000
    7       10.048769   0.000000
    8       10.083756   0.000000
    9       11.332098   0.000000
   10       11.527804   0.000000
   11       12.071102   0.000000
   12       12.831709   0.000000
   13       13.204029   0.000000
   14       13.819545   0.000000
   15       14.479192   0.000000
   16       14.899007   0.000000
 
 -0.4000000E+00  0.4000000E+00  0.0000000E+00  0.1200000E-01
    1       -4.656443   1.000000
    2        0.769623   1.000000
    3        1.067274   1.000000
    4        1.938574   1.000000
    5        4.978451   0.000000
    6        6.950936   0.000000
    7        9.654508   0.000000
    8        9.659769   0.000000
    9       10.054101   0.000000
   10       10.608834   0.000000
   11       12.313806   0.000000
   12       13.384557   0.000000
   13       14.017118   0.000000
   14       14.446683   0.000000
   15       14.987798   0.000000
   16       15.277756   0.000000
 
  0.5000000E+00  0.5000000E+00  0.0000000E+00  0.3000000E-02
    1       -4.662464   1.000000
    2        0.608317   1.000000
    3        1.751514   1.000000
    4        1.751516   1.000000
    5        4.243839   0.000000
    6        6.110416   0.000000
    7       10.894471   0.000000
    8       10.894474   0.000000
    9       11.435978   0.000000
   10       11.435982   0.000000
   11       12.322349   0.000000
   12       12.610539   0.000000
   13       12.981241   0.000000
   14       13.595693   0.000000
   15       13.597402   0.000000
   16       15.699941   0.000000
 
  0.3000000E+00  0.2000000E+00  0.1000000E+00  0.2400000E-01
    1       -5.167016   1.000000
    2        1.566691   1.000000
    3        2.464491   1.000000
    4        3.033506   1.000000
    5        6.222412   0.000000
    6        6.536332   0.000000
    7        7.074414   0.000000
    8        7.732282   0.000000
    9        8.422762   0.000000
   10        9.954052   0.000000
   11       10.514173   0.000000
   12       11.728530   0.000000
   13       12.413782   0.000000
   14       13.839588   0.000000
   15       14.668498   0.000000
   16       16.238033   0.000000
 
  0.4000000E+00  0.2000000E+00  0.1000000E+00  0.4800000E-01
    1       -4.996081   1.000000
    2        0.893406   1.000000
    3        2.158430   1.000000
    4        2.812391   1.000000
    5        6.232852   0.000000
    6        6.751018   0.000000
    7        7.190705   0.000000
    8        7.916664   0.000000
    9        9.026324   0.000000
   10       10.675067   0.000000
   11       11.072309   0.000000
   12       12.757143   0.000000
   13       13.027323   0.000000
   14       13.190395   0.000000
   15       15.066951   0.000000
   16       15.262384   0.000000
 
  0.5000000E+00  0.2000000E+00  0.1000000E+00  0.4800000E-01
    1       -4.839275   1.000000
    2        0.363007   1.000000
    3        2.053553   1.000000
    4        2.570823   1.000000
    5        6.243281   0.000000
    6        6.537654   0.000000
    7        7.611664   0.000000
    8        8.334239   0.000000
    9        9.889151   0.000000
   10       10.683481   0.000000
   11       11.211455   0.000000
   12       12.651955   0.000000
   13       13.206465   0.000000
   14       14.124128   0.000000
   15       14.857823   0.000000
   16       15.520826   0.000000
 
 -0.4000000E+00  0.2000000E+00  0.1000000E+00  0.2400000E-01
    1       -4.773810   1.000000
    2        0.164822   1.000000
    3        2.040954   1.000000
    4        2.461549   1.000000
    5        6.344150   0.000000
    6        6.348220   0.000000
    7        7.606033   0.000000
    8        9.430285   0.000000
    9        9.572256   0.000000
   10       10.284144   0.000000
   11       11.539057   0.000000
   12       12.250465   0.000000
   13       13.729714   0.000000
   14       14.019385   0.000000
   15       15.066604   0.000000
   16       16.340168   0.000000
 
  0.4000000E+00  0.3000000E+00  0.1000000E+00  0.2400000E-01
    1       -4.939899   1.000000
    2        1.036646   1.000000
    3        1.999694   1.000000
    4        2.345232   1.000000
    5        5.577611   0.000000
    6        6.507966   0.000000
    7        7.739861   0.000000
    8        8.859647   0.000000
    9        9.585664   0.000000
   10       11.308062   0.000000
   11       11.379856   0.000000
   12       12.316148   0.000000
   13       13.091607   0.000000
   14       13.101320   0.000000
   15       14.727938   0.000000
   16       15.384847   0.000000
 
  0.5000000E+00  0.3000000E+00  0.1000000E+00  0.4800000E-01
    1       -4.797936   1.000000
    2        0.656673   1.000000
    3        1.724306   1.000000
    4        2.123111   1.000000
    5        5.702296   0.000000
    6        7.088051   0.000000
    7        7.479870   0.000000
    8        8.993446   0.000000
    9       10.416587   0.000000
   10       11.053755   0.000000
   11       11.617957   0.000000
   12       12.856800   0.000000
   13       13.043601   0.000000
   14       13.643530   0.000000
   15       14.648592   0.000000
   16       15.775035   0.000000
 
 -0.4000000E+00  0.3000000E+00  0.1000000E+00  0.4800000E-01
    1       -4.715117   1.000000
    2        0.441911   1.000000
    3        1.520314   1.000000
    4        2.074490   1.000000
    5        5.901365   0.000000
    6        7.206269   0.000000
    7        8.111087   0.000000
    8        8.875229   0.000000
    9        9.656048   0.000000
   10       10.970941   0.000000
   11       11.710673   0.000000
   12       12.349153   0.000000
   13       14.111776   0.000000
   14       14.616925   0.000000
   15       15.484627   0.000000
   16       15.599597   0.000000
 
 -0.3000000E+00  0.3000000E+00  0.1000000E+00  0.4800000E-01
    1       -4.736157   1.000000
    2        0.478482   1.000000
    3        1.429607   1.000000
    4        2.243874   1.000000
    5        6.170477   0.000000
    6        6.972832   0.000000
    7        8.260651   0.000000
    8        8.910052   0.000000
    9        9.479066   0.000000
   10       10.119692   0.000000
   11       11.441726   0.000000
   12       13.300099   0.000000
   13       13.967360   0.000000
   14       14.444147   0.000000
   15       15.283931   0.000000
   16       15.820673   0.000000
 
 -0.2000000E+00  0.3000000E+00  0.1000000E+00  0.2400000E-01
    1       -4.848832   1.000000
    2        0.675989   1.000000
    3        1.618406   1.000000
    4        2.535251   1.000000
    5        6.485846   0.000000
    6        6.699163   0.000000
    7        7.413243   0.000000
    8        8.868423   0.000000
    9        8.981029   0.000000
   10       10.953956   0.000000
   11       11.247586   0.000000
   12       12.750853   0.000000
   13       13.425687   0.000000
   14       13.737448   0.000000
   15       15.207144   0.000000
   16       15.905278   0.000000
 
  0.5000000E+00  0.4000000E+00  0.1000000E+00  0.2400000E-01
    1       -4.737553   1.000000
    2        0.757740   1.000000
    3        1.697952   1.000000
    4        1.771634   1.000000
    5        4.997581   0.000000
    6        6.479459   0.000000
    7        8.716881   0.000000
    8       10.023747   0.000000
    9       11.006275   0.000000
   10       11.261466   0.000000
   11       12.209689   0.000000
   12       12.877739   0.000000
   13       12.972585   0.000000
   14       13.525630   0.000000
   15       14.643472   0.000000
   16       14.662238   0.000000
 
 -0.4000000E+00  0.4000000E+00  0.1000000E+00  0.4800000E-01
    1       -4.668800   1.000000
    2        0.734391   1.000000
    3        1.250989   1.000000
    4        1.746745   1.000000
    5        5.372230   0.000000
    6        7.051353   0.000000
    7        8.371611   0.000000
    8        9.797521   0.000000
    9       10.242210   0.000000
   10       11.510130   0.000000
   11       11.971323   0.000000
   12       12.683912   0.000000
   13       13.663905   0.000000
   14       14.569400   0.000000
   15       15.117311   0.000000
   16       15.488803   0.000000
 
 -0.3000000E+00  0.4000000E+00  0.1000000E+00  0.2400000E-01
    1       -4.668633   1.000000
    2        0.749068   1.000000
    3        1.003325   1.000000
    4        1.931763   1.000000
    5        5.773757   0.000000
    6        7.850988   0.000000
    7        8.091314   0.000000
    8        8.719446   0.000000
    9        9.995842   0.000000
   10       10.418858   0.000000
   11       11.978985   0.000000
   12       13.278257   0.000000
   13       14.071914   0.000000
   14       14.529001   0.000000
   15       15.738709   0.000000
   16       16.145633   0.000000
 
 -0.4000000E+00  0.5000000E+00  0.1000000E+00  0.1200000E-01
    1       -4.654987   1.000000
    2        0.688076   1.000000
    3        1.534324   1.000000
    4        1.594347   1.000000
    5        4.795990   0.000000
    6        6.467858   0.000000
    7        9.541274   0.000000
    8       10.283871   0.000000
    9       10.999545   0.000000
   10       11.540995   0.000000
   11       12.235372   0.000000
   12       12.821141   0.000000
   13       13.165977   0.000000
   14       14.234618   0.000000
   15       14.688628   0.000000
   16       15.550795   0.000000
 
 -0.4000000E+00  0.4000000E+00  0.2000000E+00  0.2400000E-01
    1       -4.700053   1.000000
    2        0.686812   1.000000
    3        1.347157   1.000000
    4        1.777826   1.000000
    5        6.221897   0.000000
    6        7.124550   0.000000
    7        7.420864   0.000000
    8        9.573938   0.000000
    9       10.231798   0.000000
   10       10.517288   0.000000
   11       12.017158   0.000000
   12       12.960302   0.000000
   13       13.651877   0.000000
   14       14.223317   0.000000
   15       15.342952   0.000000
   16       15.517469   0.000000
 
 -0.3000000E+00  0.4000000E+00  0.2000000E+00  0.2400000E-01
    1       -4.660735   1.000000
    2        0.740828   1.000000
    3        1.196333   1.000000
    4        1.607715   1.000000
    5        6.606686   0.000000
    6        6.843362   0.000000
    7        8.283732   0.000000
    8        8.284671   0.000000
    9       10.355113   0.000000
   10       11.385211   0.000000
   11       12.166472   0.000000
   12       12.236104   0.000000
   13       13.796897   0.000000
   14       14.697869   0.000000
   15       15.685550   0.000000
   16       15.987270   0.000000
 
 -0.3000000E+00  0.5000000E+00  0.2000000E+00  0.1200000E-01
    1       -4.642286   1.000000
    2        0.917181   1.000000
    3        1.253415   1.000000
    4        1.265861   1.000000
    5        6.062920   0.000000
    6        7.414292   0.000000
    7        7.722705   0.000000
    8        8.741716   0.000000
    9       11.308107   0.000000
   10       11.768389   0.000000
   11       11.831010   0.000000
   12       12.539452   0.000000
   13       12.929410   0.000000
   14       15.029458   0.000000
   15       15.721310   0.000000
   16       15.797052   0.000000
