 vasp.5.4.4.18Apr17-6-g9f103f2a35 (build Apr 25 2017 10:43:04) complex          
  
 executed on             LinuxIFC date 2019.08.24  15:43:16
 running on   36 total cores
 distrk:  each k-point on   36 cores,    1 groups
 distr:  one band on NCORES_PER_BAND=   1 cores,   36 groups


--------------------------------------------------------------------------------------------------------


 INCAR:
 POTCAR:    PAW_PBE Mg 13Apr2007                  
 POTCAR:    PAW_PBE O 08Apr2002                   

 ----------------------------------------------------------------------------- 
|                                                                             |
|           W    W    AA    RRRRR   N    N  II  N    N   GGGG   !!!           |
|           W    W   A  A   R    R  NN   N  II  NN   N  G    G  !!!           |
|           W    W  A    A  R    R  N N  N  II  N N  N  G       !!!           |
|           W WW W  AAAAAA  RRRRR   N  N N  II  N  N N  G  GGG   !            |
|           WW  WW  A    A  R   R   N   NN  II  N   NN  G    G                |
|           W    W  A    A  R    R  N    N  II  N    N   GGGG   !!!           |
|                                                                             |
|      For optimal performance we recommend to set                            |
|        NCORE= 4 - approx SQRT( number of cores)                             |
|      NCORE specifies how many cores store one orbital (NPAR=cpu/NCORE).     |
|      This setting can  greatly improve the performance of VASP for DFT.     |
|      The default,   NCORE=1            might be grossly inefficient         |
|      on modern multi-core architectures or massively parallel machines.     |
|      Do your own testing !!!!                                               |
|      Unfortunately you need to use the default for GW and RPA calculations. |
|      (for HF NCORE is supported but not extensively tested yet)             |
|                                                                             |
 ----------------------------------------------------------------------------- 

 POTCAR:    PAW_PBE Mg 13Apr2007                  
   VRHFIN =Mg: s2p0                                                             
   LEXCH  = PE                                                                  
   EATOM  =    23.0369 eV,    1.6932 Ry                                         
                                                                                
   TITEL  = PAW_PBE Mg 13Apr2007                                                
   LULTRA =        F    use ultrasoft PP ?                                      
   IUNSCR =        1    unscreen: 0-lin 1-nonlin 2-no                           
   RPACOR =    1.500    partial core radius                                     
   POMASS =   24.305; ZVAL   =    2.000    mass and valenz                      
   RCORE  =    2.000    outmost cutoff radius                                   
   RWIGS  =    2.880; RWIGS  =    1.524    wigner-seitz radius (au A)           
   ENMAX  =  200.000; ENMIN  =  100.000 eV                                      
   RCLOC  =    1.506    cutoff for local pot                                    
   LCOR   =        T    correct aug charges                                     
   LPAW   =        T    paw PP                                                  
   EAUG   =  454.734                                                            
   DEXC   =    0.000                                                            
   RMAX   =    2.045    core radius for proj-oper                               
   RAUG   =    1.300    factor for augmentation sphere                          
   RDEP   =    2.025    radius for radial grids                                 
   RDEPT  =    1.942    core radius for aug-charge                              
                                                                                
   Atomic configuration                                                         
    6 entries                                                                   
     n  l   j            E        occ.                                          
     1  0  0.50     -1259.6230   2.0000                                         
     2  0  0.50       -79.8442   2.0000                                         
     2  1  1.50       -46.6121   6.0000                                         
     3  0  0.50        -4.7055   2.0000                                         
     3  1  0.50        -1.3660   0.0000                                         
     3  2  1.50        -1.3606   0.0000                                         
   Description                                                                  
     l       E           TYP  RCUT    TYP  RCUT                                 
     0     -4.7054661     23  2.000                                             
     0     27.2116520     23  2.000                                             
     1      1.3605826     23  2.000                                             
     1     27.2116520     23  2.000                                             
     2     -1.3605826     23  2.000                                             
  local pseudopotential read in
  partial core-charges read in
  partial kinetic energy density read in
  atomic valenz-charges read in
  non local Contribution for L=           0  read in
    real space projection operators read in
  non local Contribution for L=           0  read in
    real space projection operators read in
  non local Contribution for L=           1  read in
    real space projection operators read in
  non local Contribution for L=           1  read in
    real space projection operators read in
  non local Contribution for L=           2  read in
    real space projection operators read in
    PAW grid and wavefunctions read in
 
   number of l-projection  operators is LMAX  =           5
   number of lm-projection operators is LMMAX =          13
 
 POTCAR:    PAW_PBE O 08Apr2002                   
   VRHFIN =O: s2p4                                                              
   LEXCH  = PE                                                                  
   EATOM  =   432.3788 eV,   31.7789 Ry                                         
                                                                                
   TITEL  = PAW_PBE O 08Apr2002                                                 
   LULTRA =        F    use ultrasoft PP ?                                      
   IUNSCR =        1    unscreen: 0-lin 1-nonlin 2-no                           
   RPACOR =    1.200    partial core radius                                     
   POMASS =   16.000; ZVAL   =    6.000    mass and valenz                      
   RCORE  =    1.520    outmost cutoff radius                                   
   RWIGS  =    1.550; RWIGS  =    0.820    wigner-seitz radius (au A)           
   ENMAX  =  400.000; ENMIN  =  300.000 eV                                      
   ICORE  =        2    local potential                                         
   LCOR   =        T    correct aug charges                                     
   LPAW   =        T    paw PP                                                  
   EAUG   =  605.392                                                            
   DEXC   =    0.000                                                            
   RMAX   =    1.553    core radius for proj-oper                               
   RAUG   =    1.300    factor for augmentation sphere                          
   RDEP   =    1.550    radius for radial grids                                 
   RDEPT  =    1.329    core radius for aug-charge                              
                                                                                
   Atomic configuration                                                         
    4 entries                                                                   
     n  l   j            E        occ.                                          
     1  0  0.50      -514.6923   2.0000                                         
     2  0  0.50       -23.9615   2.0000                                         
     2  1  0.50        -9.0305   4.0000                                         
     3  2  1.50        -9.5241   0.0000                                         
   Description                                                                  
     l       E           TYP  RCUT    TYP  RCUT                                 
     0    -23.9615318     23  1.200                                             
     0     -9.5240782     23  1.200                                             
     1     -9.0304911     23  1.520                                             
     1      8.1634956     23  1.520                                             
     2     -9.5240782      7  1.500                                             
  local pseudopotential read in
  partial core-charges read in
  partial kinetic energy density read in
  kinetic energy density of atom read in
  atomic valenz-charges read in
  non local Contribution for L=           0  read in
    real space projection operators read in
  non local Contribution for L=           0  read in
    real space projection operators read in
  non local Contribution for L=           1  read in
    real space projection operators read in
  non local Contribution for L=           1  read in
    real space projection operators read in
    PAW grid and wavefunctions read in
 
   number of l-projection  operators is LMAX  =           4
   number of lm-projection operators is LMMAX =           8
 
 Optimization of the real space projectors (new method)

 maximal supplied QI-value         = 18.90
 optimisation between [QCUT,QGAM] = [ 10.20, 20.41] = [ 29.16,116.64] Ry 
 Optimized for a Real-space Cutoff    1.30 Angstroem

   l    n(q)    QCUT    max X(q) W(low)/X(q) W(high)/X(q)  e(spline) 
   0      8    10.205    28.265    0.22E-03    0.17E-03    0.53E-07
   0      8    10.205    10.429    0.17E-03    0.15E-03    0.43E-07
   1      7    10.205    13.073    0.71E-04    0.41E-03    0.76E-07
   1      7    10.205     9.625    0.71E-04    0.33E-03    0.63E-07
   2      7    10.205     4.652    0.24E-03    0.41E-03    0.55E-07
 Optimization of the real space projectors (new method)

 maximal supplied QI-value         = 24.76
 optimisation between [QCUT,QGAM] = [ 10.15, 20.30] = [ 28.85,115.39] Ry 
 Optimized for a Real-space Cutoff    1.38 Angstroem

   l    n(q)    QCUT    max X(q) W(low)/X(q) W(high)/X(q)  e(spline) 
   0      8    10.150    20.381    0.22E-03    0.32E-03    0.29E-06
   0      8    10.150    15.268    0.23E-03    0.35E-03    0.30E-06
   1      8    10.150     5.964    0.46E-03    0.53E-03    0.21E-06
   1      8    10.150     5.382    0.38E-03    0.45E-03    0.19E-06

 ----------------------------------------------------------------------------- 
|                                                                             |
|  ADVICE TO THIS USER RUNNING 'VASP/VAMP'   (HEAR YOUR MASTER'S VOICE ...):  |
|                                                                             |
|      You enforced a specific xc-type in the INCAR file,                     |
|      a different type was found on the POTCAR file                          |
|          I HOPE YOU KNOW, WHAT YOU ARE  DOING                               |
|                                                                             |
 ----------------------------------------------------------------------------- 

  PAW_PBE Mg 13Apr2007                  :
 energy of atom  1       EATOM=  -23.0369
 kinetic energy error for atom=    0.0001 (will be added to EATOM!!)
  PAW_PBE O 08Apr2002                   :
 energy of atom  2       EATOM= -432.3788
 kinetic energy error for atom=    0.1156 (will be added to EATOM!!)
 
 
 POSCAR: Mg31 O31                                
  positions in direct lattice
  velocities in cartesian coordinates
 exchange correlation table for  LEXCH =       14
   RHO(1)=    0.500       N(1)  =     2000
   RHO(2)=  100.500       N(2)  =     4000
 


--------------------------------------------------------------------------------------------------------


 ion  position               nearest neighbor table
   1  0.998  0.000  0.500-  47 1.99  48 1.99  36 2.11  56 2.12  58 2.12  32 2.16  16 2.91  17 2.91
                            29 2.94  31 2.94  20 2.96  21 2.96   8 2.98   9 2.98  10 2.98  11 2.98
   2  0.998  0.500  0.000-  55 1.99  57 1.99  37 2.11  49 2.12  50 2.12  33 2.16  24 2.91  26 2.91
                            22 2.94  23 2.94  28 2.96  30 2.96   8 2.98   9 2.98  10 2.98  11 2.98
   3  0.999  0.500  0.500-  49 2.09  50 2.09  56 2.09  58 2.09  38 2.11  34 2.12  29 2.97  31 2.97
                            22 2.97  23 2.97  18 2.97  19 2.97  25 2.97  27 2.97  10 3.06  11 3.06
   4  0.506  0.000  0.000-  35 1.95  51 2.10  52 2.10  59 2.10  61 2.10  21 2.95  28 2.95  30 2.95
                            20 2.95  13 2.96  14 2.96  15 2.96  12 2.96  26 3.09  16 3.09  17 3.09
   5  0.502  0.000  0.500-  36 2.06  32 2.09  60 2.11  62 2.11  51 2.11  52 2.11  29 2.97  31 2.97
                            12 2.98  13 2.98  14 2.98  15 2.98  16 2.98  17 2.98  25 3.00  27 3.00
   6  0.502  0.500  0.000-  37 2.06  33 2.09  53 2.11  54 2.11  59 2.11  61 2.11  22 2.97  23 2.97
                            12 2.98  13 2.98  14 2.98  15 2.98  24 2.98  26 2.98  18 3.00  19 3.00
   7  0.501  0.500  0.500-  38 2.09  34 2.10  53 2.10  54 2.10  60 2.10  62 2.10  29 2.99  31 2.99
                            22 2.99  23 2.99  18 2.99  19 2.99  25 2.99  27 2.99  14 2.99  15 2.99
   8  0.000  0.243  0.243-  47 2.06  55 2.06  39 2.11  43 2.11  49 2.16  56 2.16  20 2.89  28 2.89
                            24 2.90  16 2.90   1 2.98   2 2.98  25 3.01  18 3.01  22 3.01  29 3.01
   9  0.000  0.243  0.757-  48 2.06  55 2.06  40 2.11  44 2.11  50 2.16  56 2.16  21 2.89  28 2.89
                            24 2.90  17 2.90   1 2.98   2 2.98  25 3.01  19 3.01  23 3.01  29 3.01
  10  0.000  0.757  0.243-  47 2.06  57 2.06  41 2.11  45 2.11  49 2.16  58 2.16  20 2.89  30 2.89
                            26 2.90  16 2.90   1 2.98   2 2.98  27 3.01  18 3.01  22 3.01  31 3.01
  11  0.000  0.757  0.757-  48 2.06  57 2.06  42 2.11  46 2.11  50 2.16  58 2.16  21 2.89  30 2.89
                            26 2.90  17 2.90   1 2.98   2 2.98  27 3.01  19 3.01  23 3.01  31 3.01
  12  0.500  0.249  0.249-  51 2.09  59 2.09  43 2.10  39 2.10  53 2.12  60 2.12   4 2.96   5 2.98
                             6 2.98  22 2.99  29 2.99   7 2.99  25 3.00  18 3.00  16 3.01  24 3.01
  13  0.500  0.249  0.751-  52 2.09  59 2.09  44 2.10  40 2.10  54 2.12  60 2.12   4 2.96   5 2.98
                             6 2.98  23 2.99  29 2.99   7 2.99  25 3.00  19 3.00  17 3.01  24 3.01
  14  0.500  0.751  0.249-  51 2.09  61 2.09  45 2.10  41 2.10  53 2.12  62 2.12   4 2.96   5 2.98
                             6 2.98  22 2.99  31 2.99   7 2.99  27 3.00  18 3.00  16 3.01  26 3.01
  15  0.500  0.751  0.751-  52 2.09  61 2.09  46 2.10  42 2.10  54 2.12  62 2.12   4 2.96   5 2.98
                             6 2.98  23 2.99  31 2.99   7 2.99  27 3.00  19 3.00  17 3.01  26 3.01
  16  0.244  0.000  0.258-  47 2.03  32 2.04  41 2.09  39 2.09  51 2.12  10 2.90   8 2.90   1 2.91
                            27 2.93  25 2.93   5 2.98  14 3.01  12 3.01  24 3.07  26 3.07   4 3.09
  17  0.244  0.000  0.742-  48 2.03  32 2.04  42 2.09  40 2.09  52 2.12  11 2.90   9 2.90   1 2.91
                            27 2.93  25 2.93   5 2.98  15 3.01  13 3.01  24 3.07  26 3.07   4 3.09
  18  0.248  0.500  0.250-  49 2.08  34 2.10  33 2.11  53 2.11  39 2.12  41 2.12  24 2.93  26 2.93
                             3 2.97  25 2.97  27 2.97   2 2.98   7 2.99  12 3.00  14 3.00   6 3.00
  19  0.248  0.500  0.750-  50 2.08  34 2.10  33 2.11  54 2.11  40 2.12  42 2.12  24 2.93  26 2.93
                             3 2.97  25 2.97  27 2.97   2 2.98   7 2.99  13 3.00  15 3.00   6 3.00
  20  0.759  0.000  0.243-  35 2.05  47 2.06  45 2.10  43 2.10  36 2.17  51 2.21   8 2.89  10 2.89
                            28 2.89  30 2.89   4 2.95   1 2.96  29 3.01  31 3.01  12 3.02  14 3.02
  21  0.759  0.000  0.757-  35 2.05  48 2.06  46 2.10  44 2.10  36 2.17  52 2.21   9 2.89  11 2.89
                            28 2.89  30 2.89   4 2.95   1 2.96  29 3.01  31 3.01  13 3.02  15 3.02
  22  0.752  0.500  0.249-  37 2.10  49 2.10  45 2.11  43 2.11  38 2.11  53 2.13   2 2.94   3 2.97
                             6 2.97   7 2.99  29 2.99  31 2.99  12 2.99  14 2.99   8 3.01  10 3.01
  23  0.752  0.500  0.751-  37 2.10  50 2.10  46 2.11  44 2.11  38 2.11  54 2.13   2 2.94   3 2.97
                             6 2.97   7 2.99  29 2.99  31 2.99  13 2.99  15 2.99   9 3.01  11 3.01
  24  0.244  0.258  0.000-  55 2.03  33 2.04  40 2.09  39 2.09  59 2.12   9 2.90   8 2.90   2 2.91
                            19 2.93  18 2.93   6 2.98  13 3.01  12 3.01  17 3.07  16 3.07   4 3.09
  25  0.248  0.250  0.500-  56 2.08  34 2.10  32 2.11  60 2.11  39 2.12  40 2.12  16 2.93  17 2.93
                             3 2.97  18 2.97  19 2.97   1 2.98   7 2.99  12 3.00  13 3.00   5 3.00
  26  0.244  0.742  0.000-  57 2.03  33 2.04  42 2.09  41 2.09  61 2.12  11 2.90  10 2.90   2 2.91
                            19 2.93  18 2.93   6 2.98  15 3.01  14 3.01  17 3.07  16 3.07   4 3.09
  27  0.248  0.750  0.500-  58 2.08  34 2.10  32 2.11  62 2.11  41 2.12  42 2.12  16 2.93  17 2.93
                             3 2.97  18 2.97  19 2.97   1 2.98   7 2.99  14 3.00  15 3.00   5 3.00
  28  0.759  0.243  0.000-  35 2.05  55 2.06  44 2.10  43 2.10  37 2.17  59 2.21   8 2.89   9 2.89
                            20 2.89  21 2.89   4 2.95   2 2.96  22 3.01  23 3.01  12 3.02  13 3.02
  29  0.752  0.249  0.500-  36 2.10  56 2.10  44 2.11  43 2.11  38 2.11  60 2.13   1 2.94   3 2.97
                             5 2.97   7 2.99  22 2.99  23 2.99  12 2.99  13 2.99   8 3.01   9 3.01
  30  0.759  0.757  0.000-  35 2.05  57 2.06  46 2.10  45 2.10  37 2.17  61 2.21  10 2.89  11 2.89
                            20 2.89  21 2.89   4 2.95   2 2.96  22 3.01  23 3.01  14 3.02  15 3.02
  31  0.752  0.751  0.500-  36 2.10  58 2.10  46 2.11  45 2.11  38 2.11  62 2.13   1 2.94   3 2.97
                             5 2.97   7 2.99  22 2.99  23 2.99  14 2.99  15 2.99  10 3.01  11 3.01
  32  0.254  0.000  0.500-  16 2.04  17 2.04   5 2.09  25 2.11  27 2.11   1 2.16
  33  0.254  0.500  0.000-  24 2.04  26 2.04   6 2.09  18 2.11  19 2.11   2 2.16
  34  0.251  0.500  0.500-   7 2.10  18 2.10  19 2.10  25 2.10  27 2.10   3 2.12
  35  0.738  0.000  0.000-   4 1.95  20 2.05  21 2.05  28 2.05  30 2.05
  36  0.747  0.000  0.500-   5 2.06  29 2.10  31 2.10   1 2.11  20 2.17  21 2.17
  37  0.747  0.500  0.000-   6 2.06  22 2.10  23 2.10   2 2.11  28 2.17  30 2.17
  38  0.749  0.500  0.500-   7 2.09   3 2.11  22 2.11  23 2.11  29 2.11  31 2.11
  39  0.250  0.248  0.248-  16 2.09  24 2.09  12 2.10   8 2.11  18 2.12  25 2.12
  40  0.250  0.248  0.752-  17 2.09  24 2.09  13 2.10   9 2.11  19 2.12  25 2.12
  41  0.250  0.752  0.248-  16 2.09  26 2.09  14 2.10  10 2.11  18 2.12  27 2.12
  42  0.250  0.752  0.752-  17 2.09  26 2.09  15 2.10  11 2.11  19 2.12  27 2.12
  43  0.750  0.250  0.250-  12 2.10  20 2.10  28 2.10  29 2.11  22 2.11   8 2.11
  44  0.750  0.250  0.750-  13 2.10  21 2.10  28 2.10  29 2.11  23 2.11   9 2.11
  45  0.750  0.750  0.250-  14 2.10  20 2.10  30 2.10  31 2.11  22 2.11  10 2.11
  46  0.750  0.750  0.750-  15 2.10  21 2.10  30 2.10  31 2.11  23 2.11  11 2.11
  47  0.003  0.000  0.264-   1 1.99  16 2.03  10 2.06   8 2.06  20 2.06
  48  0.003  0.000  0.736-   1 1.99  17 2.03  11 2.06   9 2.06  21 2.06
  49  0.001  0.500  0.252-  18 2.08   3 2.09  22 2.10   2 2.12   8 2.16  10 2.16
  50  0.001  0.500  0.748-  19 2.08   3 2.09  23 2.10   2 2.12   9 2.16  11 2.16
  51  0.496  0.000  0.249-  12 2.09  14 2.09   4 2.10   5 2.11  16 2.12  20 2.21
  52  0.496  0.000  0.751-  13 2.09  15 2.09   4 2.10   5 2.11  17 2.12  21 2.21
  53  0.499  0.500  0.250-   7 2.10   6 2.11  18 2.11  14 2.12  12 2.12  22 2.13
  54  0.499  0.500  0.750-   7 2.10   6 2.11  19 2.11  15 2.12  13 2.12  23 2.13
  55  0.003  0.264  0.000-   2 1.99  24 2.03   9 2.06   8 2.06  28 2.06
  56  0.001  0.252  0.500-  25 2.08   3 2.09  29 2.10   1 2.12   8 2.16   9 2.16
  57  0.003  0.736  0.000-   2 1.99  26 2.03  11 2.06  10 2.06  30 2.06
  58  0.001  0.748  0.500-  27 2.08   3 2.09  31 2.10   1 2.12  10 2.16  11 2.16
  59  0.496  0.249  0.000-  12 2.09  13 2.09   4 2.10   6 2.11  24 2.12  28 2.21
  60  0.499  0.250  0.500-   7 2.10   5 2.11  25 2.11  13 2.12  12 2.12  29 2.13
  61  0.496  0.751  0.000-  14 2.09  15 2.09   4 2.10   6 2.11  26 2.12  30 2.21
  62  0.499  0.750  0.500-   7 2.10   5 2.11  27 2.11  15 2.12  14 2.12  31 2.13
 
  LATTYP: Found a simple cubic cell.
 ALAT       =     8.4194560000
  
  Lattice vectors:
  
 A1 = (   8.4194560000,   0.0000000000,   0.0000000000)
 A2 = (   0.0000000000,   8.4194560000,   0.0000000000)
 A3 = (   0.0000000000,   0.0000000000,   8.4194560000)


Analysis of symmetry for initial positions (statically):
=====================================================================
 Subroutine PRICEL returns:
 Original cell was already a primitive cell.
 

 Routine SETGRP: Setting up the symmetry group for a 
 simple cubic supercell.


 Subroutine GETGRP returns: Found  8 space group operations
 (whereof  8 operations were pure point group operations)
 out of a pool of 48 trial point group operations.


The static configuration has the point symmetry C_4v.


Analysis of symmetry for dynamics (positions and initial velocities):
=====================================================================
 Subroutine PRICEL returns:
 Original cell was already a primitive cell.
 

 Routine SETGRP: Setting up the symmetry group for a 
 simple cubic supercell.


 Subroutine GETGRP returns: Found  8 space group operations
 (whereof  8 operations were pure point group operations)
 out of a pool of 48 trial point group operations.


The dynamic configuration has the point symmetry C_4v.


Analysis of structural, dynamic, and magnetic symmetry:
=====================================================================
 Subroutine PRICEL returns:
 Original cell was already a primitive cell.
 

 Routine SETGRP: Setting up the symmetry group for a 
 simple cubic supercell.


 Subroutine GETGRP returns: Found  8 space group operations
 (whereof  8 operations were pure point group operations)
 out of a pool of 48 trial point group operations.


The magnetic configuration has the point symmetry C_4v.


 Subroutine INISYM returns: Found  8 space group operations
 (whereof  8 operations are pure point group operations),
 and found     1 'primitive' translations

 
 
 KPOINTS: mode: manual_set, kpt density: 2, factor

Automatic generation of k-mesh.
Space group operators:
 irot       det(A)        alpha          n_x          n_y          n_z        tau_x        tau_y        tau_z
    1     1.000000     0.000001     1.000000     0.000000     0.000000     0.000000     0.000000     0.000000
    2    -1.000000   180.000000     0.000000     0.707107     0.707107     0.000000     0.000000     0.000000
    3    -1.000000   180.000000     0.000000     0.000000     1.000000     0.000000     0.000000     0.000000
    4     1.000000    90.000000    -1.000000     0.000000     0.000000     0.000000     0.000000     0.000000
    5     1.000000   180.000000     1.000000     0.000000     0.000000     0.000000     0.000000     0.000000
    6     1.000000    90.000000     1.000000     0.000000     0.000000     0.000000     0.000000     0.000000
    7    -1.000000   180.000000     0.000000     1.000000     0.000000     0.000000     0.000000     0.000000
    8    -1.000000   180.000000     0.000000    -0.707107     0.707107     0.000000     0.000000     0.000000
 
 Subroutine IBZKPT returns following result:
 ===========================================
 
 Found      1 irreducible k-points:
 
 Following reciprocal coordinates:
            Coordinates               Weight
  0.250000  0.250000  0.250000      8.000000
 
 Following cartesian coordinates:
            Coordinates               Weight
  0.029693  0.029693  0.029693      8.000000
 


--------------------------------------------------------------------------------------------------------




 Dimension of arrays:
   k-points           NKPTS =      1   k-points in BZ     NKDIM =      1   number of bands    NBANDS=    216
   number of dos      NEDOS =    301   number of ions     NIONS =     62
   non local maximal  LDIM  =      5   non local SUM 2l+1 LMDIM =     13
   total plane-waves  NPLWV =  74088
   max r-space proj   IRMAX =   1418   max aug-charges    IRDMAX=   5472
   dimension x,y,z NGX =    42 NGY =   42 NGZ =   42
   dimension x,y,z NGXF=    84 NGYF=   84 NGZF=   84
   support grid    NGXF=    84 NGYF=   84 NGZF=   84
   ions per type =              31  31
   NGX,Y,Z   is equivalent  to a cutoff of   8.29,  8.29,  8.29 a.u.
   NGXF,Y,Z  is equivalent  to a cutoff of  16.59, 16.59, 16.59 a.u.

 SYSTEM =  unknown system                          
 POSCAR =  Mg31 O31                                

 Startparameter for this run:
   NWRITE =      2    write-flag & timer
   PREC   = n         normal or accurate (medium, high low for compatibility)
   ISTART =      1    job   : 0-new  1-cont  2-samecut
   ICHARG =      0    charge: 1-file 2-atom 10-const
   ISPIN  =      2    spin polarized calculation?
   LNONCOLLINEAR =      F non collinear calculations
   LSORBIT =      F    spin-orbit coupling
   INIWAV =      1    electr: 0-lowe 1-rand  2-diag
   LASPH  =      T    aspherical Exc in radial PAW
   METAGGA=      F    non-selfconsistent MetaGGA calc.

 Electronic Relaxation 1
   ENCUT  =  400.0 eV  29.40 Ry    5.42 a.u.  13.73 13.73 13.73*2*pi/ulx,y,z
   ENINI  =  400.0     initial cutoff
   ENAUG  =  605.4 eV  augmentation charge cutoff
   NELM   =    100;   NELMIN=  2; NELMDL=  0     # of ELM steps 
   EDIFF  = 0.1E-05   stopping-criterion for ELM
   LREAL  =      T    real-space projection
   NLSPLINE    = F    spline interpolate recip. space projectors
   LCOMPAT=      F    compatible to vasp.4.4
   GGA_COMPAT  = T    GGA compatible to vasp.4.4-vasp.4.6
   LMAXPAW     = -100 max onsite density
   LMAXMIX     =    2 max onsite mixed and CHGCAR
   VOSKOWN=      0    Vosko Wilk Nusair interpolation
   ROPT   =   -0.00050  -0.00050
 Ionic relaxation
   EDIFFG = -.4E-01   stopping-criterion for IOM
   NSW    =     50    number of steps for IOM
   NBLOCK =      1;   KBLOCK =     50    inner block; outer block 
   IBRION =      2    ionic relax: 0-MD 1-quasi-New 2-CG
   NFREE  =      1    steps in history (QN), initial steepest desc. (CG)
   ISIF   =      2    stress and relaxation
   IWAVPR =     11    prediction:  0-non 1-charg 2-wave 3-comb
   ISYM   =      2    0-nonsym 1-usesym 2-fastsym
   LCORR  =      T    Harris-Foulkes like correction to forces

   POTIM  = 0.5000    time-step for ionic-motion
   TEIN   =    0.0    initial temperature
   TEBEG  =    0.0;   TEEND  =   0.0 temperature during run
   SMASS  =  -3.00    Nose mass-parameter (am)
   estimated Nose-frequenzy (Omega)   =  0.10E-29 period in steps =****** mass=  -0.162E-26a.u.
   SCALEE = 1.0000    scale energy and forces
   NPACO  =    256;   APACO  = 16.0  distance and # of slots for P.C.
   PSTRESS=    0.0 pullay stress

  Mass of Ions in am
   POMASS =  24.30 16.00
  Ionic Valenz
   ZVAL   =   2.00  6.00
  Atomic Wigner-Seitz radii
   RWIGS  =  -1.00 -1.00
  virtual crystal weights 
   VCA    =   1.00  1.00
   NELECT =     249.0000    total number of electrons
   NUPDOWN=      -1.0000    fix difference up-down

 DOS related values:
   EMIN   =  10.00;   EMAX   =-10.00  energy-range for DOS
   EFERMI =   0.00
   ISMEAR =     0;   SIGMA  =   0.10  broadening in eV -4-tet -1-fermi 0-gaus

 Electronic relaxation 2 (details)
   IALGO  =     38    algorithm
   LDIAG  =      T    sub-space diagonalisation (order eigenvalues)
   LSUBROT=      F    optimize rotation matrix (better conditioning)
   TURBO    =      0    0=normal 1=particle mesh
   IRESTART =      0    0=no restart 2=restart with 2 vectors
   NREBOOT  =      0    no. of reboots
   NMIN     =      0    reboot dimension
   EREF     =   0.00    reference energy to select bands
   IMIX   =      4    mixing-type and parameters
     AMIX     =   0.40;   BMIX     =  1.00
     AMIX_MAG =   1.60;   BMIX_MAG =  1.00
     AMIN     =   0.10
     WC   =   100.;   INIMIX=   1;  MIXPRE=   1;  MAXMIX= -45

 Intra band minimization:
   WEIMIN = 0.0010     energy-eigenvalue tresh-hold
   EBREAK =  0.12E-08  absolut break condition
   DEPER  =   0.30     relativ break condition  

   TIME   =   0.40     timestep for ELM

  volume/ion in A,a.u.               =       9.63        64.96
  Fermi-wavevector in a.u.,A,eV,Ry     =   1.223274  2.311654 20.359764  1.496400
  Thomas-Fermi vector in A             =   2.358391
 
 Write flags
   LWAVE        =      T    write WAVECAR
   LDOWNSAMPLE  =      F    k-point downsampling of WAVECAR
   LCHARG       =      F    write CHGCAR
   LVTOT        =      F    write LOCPOT, total local potential
   LVHAR        =      F    write LOCPOT, Hartree potential only
   LELF         =      F    write electronic localiz. function (ELF)
   LORBIT       =     12    0 simple, 1 ext, 2 COOP (PROOUT), +10 PAW based schemes


 Dipole corrections
   LMONO  =      F    monopole corrections only (constant potential shift)
   LDIPOL =      F    correct potential (dipole corrections)
   IDIPOL =      0    1-x, 2-y, 3-z, 4-all directions 
   EPSILON=  1.0000000 bulk dielectric constant

 Exchange correlation treatment:
   GGA     =    PS    GGA type
   LEXCH   =    14    internal setting for exchange type
   VOSKOWN=      0    Vosko Wilk Nusair interpolation
   LHFCALC =     F    Hartree Fock is set to
   LHFONE  =     F    Hartree Fock one center treatment
   AEXX    =    0.0000 exact exchange contribution

 Linear response parameters
   LEPSILON=     F    determine dielectric tensor
   LRPA    =     F    only Hartree local field effects (RPA)
   LNABLA  =     F    use nabla operator in PAW spheres
   LVEL    =     F    velocity operator in full k-point grid
   LINTERFAST=   F  fast interpolation
   KINTER  =     0    interpolate to denser k-point grid
   CSHIFT  =0.1000    complex shift for real part using Kramers Kronig
   OMEGAMAX=  -1.0    maximum frequency
   DEG_THRESHOLD= 0.2000000E-02 threshold for treating states as degnerate
   RTIME   =   -0.100 relaxation time in fs
  (WPLASMAI=    0.000 imaginary part of plasma frequency in eV, 0.658/RTIME)
   DFIELD  = 0.0000000 0.0000000 0.0000000 field for delta impulse in time
 
 Orbital magnetization related:
   ORBITALMAG=     F  switch on orbital magnetization
   LCHIMAG   =     F  perturbation theory with respect to B field
   DQ        =  0.001000  dq finite difference perturbation B field
   LLRAUG    =     F  two centre corrections for induced B field



--------------------------------------------------------------------------------------------------------


 conjugate gradient relaxation of ions
 charge density and potential will be updated during run
 spin polarized calculation
 Variant of blocked Davidson
 Davidson routine will perform the subspace rotation
 perform sub-space diagonalisation
    after iterative eigenvector-optimisation
 modified Broyden-mixing scheme, WC =      100.0
 initial mixing is a Kerker type mixing with AMIX =  0.4000 and BMIX =      1.0000
 Hartree-type preconditioning will be used
 using additional bands           91
 real space projection scheme for non local part
 use partial core corrections
 calculate Harris-corrections to forces 
   (improved forces if not selfconsistent)
 use gradient corrections 
 use of overlap-Matrix (Vanderbilt PP)
 Gauss-broadening in eV      SIGMA  =   0.10


--------------------------------------------------------------------------------------------------------


  energy-cutoff  :      400.00
  volume of cell :      596.83
      direct lattice vectors                 reciprocal lattice vectors
     8.419456000  0.000000000  0.000000000     0.118772519  0.000000000  0.000000000
     0.000000000  8.419456000  0.000000000     0.000000000  0.118772519  0.000000000
     0.000000000  0.000000000  8.419456000     0.000000000  0.000000000  0.118772519

  length of vectors
     8.419456000  8.419456000  8.419456000     0.118772519  0.118772519  0.118772519


 
 old parameters found on file WAVECAR:
  energy-cutoff  :      400.00
  volume of cell :      596.83
      direct lattice vectors                 reciprocal lattice vectors
     8.419456000  0.000000000  0.000000000     0.118772519  0.000000000  0.000000000
     0.000000000  8.419456000  0.000000000     0.000000000  0.118772519  0.000000000
     0.000000000  0.000000000  8.419456000     0.000000000  0.000000000  0.118772519

  length of vectors

 
 k-points in units of 2pi/SCALE and weight: mode: manual_set, kpt density: 2, factor
   0.02969313  0.02969313  0.02969313       1.000
 
 k-points in reciprocal lattice and weights: mode: manual_set, kpt density: 2, factor
   0.25000000  0.25000000  0.25000000       1.000
 
 position of ions in fractional coordinates (direct lattice) 
   0.99756693  0.00000000  0.50000000
   0.99756693  0.50000000  0.00000000
   0.99916369  0.50000000  0.50000000
   0.50577975  0.00000000  0.00000000
   0.50208273  0.00000000  0.50000000
   0.50208273  0.50000000  0.00000000
   0.50079285  0.50000000  0.50000000
   0.00005107  0.24338027  0.24338027
   0.00005107  0.24338027  0.75661973
   0.00005107  0.75661973  0.24338027
   0.00005107  0.75661973  0.75661973
   0.50039249  0.24855245  0.24855245
   0.50039249  0.24855245  0.75144755
   0.50039249  0.75144755  0.24855245
   0.50039249  0.75144755  0.75144755
   0.24406207  0.00000000  0.25809349
   0.24406207  0.00000000  0.74190651
   0.24822446  0.50000000  0.25031756
   0.24822446  0.50000000  0.74968244
   0.75865835  0.00000000  0.24287997
   0.75865835  0.00000000  0.75712003
   0.75180553  0.50000000  0.24885984
   0.75180553  0.50000000  0.75114016
   0.24406207  0.25809349  0.00000000
   0.24822446  0.25031756  0.50000000
   0.24406207  0.74190651  0.00000000
   0.24822446  0.74968244  0.50000000
   0.75865835  0.24287997  0.00000000
   0.75180553  0.24885984  0.50000000
   0.75865835  0.75712003  0.00000000
   0.75180553  0.75114016  0.50000000
   0.25359374  0.00000000  0.50000000
   0.25359374  0.50000000  0.00000000
   0.25129539  0.50000000  0.50000000
   0.73773432  0.00000000  0.00000000
   0.74690417  0.00000000  0.50000000
   0.74690417  0.50000000  0.00000000
   0.74873252  0.50000000  0.50000000
   0.25041682  0.24812998  0.24812998
   0.25041682  0.24812998  0.75187002
   0.25041682  0.75187002  0.24812998
   0.25041682  0.75187002  0.75187002
   0.74957218  0.24963392  0.24963392
   0.74957218  0.24963392  0.75036608
   0.74957218  0.75036608  0.24963392
   0.74957218  0.75036608  0.75036608
   0.00258456  0.00000000  0.26427490
   0.00258456  0.00000000  0.73572510
   0.00077747  0.50000000  0.25227447
   0.00077747  0.50000000  0.74772553
   0.49580592  0.00000000  0.24933577
   0.49580592  0.00000000  0.75066423
   0.49920066  0.50000000  0.25034516
   0.49920066  0.50000000  0.74965484
   0.00258456  0.26427490  0.00000000
   0.00077747  0.25227447  0.50000000
   0.00258456  0.73572510  0.00000000
   0.00077747  0.74772553  0.50000000
   0.49580592  0.24933577  0.00000000
   0.49920066  0.25034516  0.50000000
   0.49580592  0.75066423  0.00000000
   0.49920066  0.74965484  0.50000000
 
 position of ions in cartesian coordinates  (Angst):
   8.39897087  0.00000000  4.20972800
   8.39897087  4.20972800  0.00000000
   8.41241471  4.20972800  4.20972800
   4.25839033  0.00000000  0.00000000
   4.22726344  0.00000000  4.20972800
   4.22726344  4.20972800  0.00000000
   4.21640338  4.20972800  4.20972800
   0.00042997  2.04912949  2.04912949
   0.00042997  2.04912949  6.37032651
   0.00042997  6.37032651  2.04912949
   0.00042997  6.37032651  6.37032651
   4.21303256  2.09267642  2.09267642
   4.21303256  2.09267642  6.32677958
   4.21303256  6.32677958  2.09267642
   4.21303256  6.32677958  6.32677958
   2.05486985  0.00000000  2.17300678
   2.05486985  0.00000000  6.24644922
   2.08991488  4.20972800  2.10753764
   2.08991488  4.20972800  6.31191836
   6.38749062  0.00000000  2.04491721
   6.38749062  0.00000000  6.37453879
   6.32979358  4.20972800  2.09526445
   6.32979358  4.20972800  6.32419155
   2.05486985  2.17300678  0.00000000
   2.08991488  2.10753764  4.20972800
   2.05486985  6.24644922  0.00000000
   2.08991488  6.31191836  4.20972800
   6.38749062  2.04491721  0.00000000
   6.32979358  2.09526445  4.20972800
   6.38749062  6.37453879  0.00000000
   6.32979358  6.32419155  4.20972800
   2.13512135  0.00000000  4.20972800
   2.13512135  4.20972800  0.00000000
   2.11577051  4.20972800  4.20972800
   6.21132168  0.00000000  0.00000000
   6.28852676  0.00000000  4.20972800
   6.28852676  4.20972800  0.00000000
   6.30392053  4.20972800  4.20972800
   2.10837339  2.08911949  2.08911949
   2.10837339  2.08911949  6.33033651
   2.10837339  6.33033651  2.08911949
   2.10837339  6.33033651  6.33033651
   6.31099003  2.10178182  2.10178182
   6.31099003  2.10178182  6.31767418
   6.31099003  6.31767418  2.10178182
   6.31099003  6.31767418  6.31767418
   0.02176058  0.00000000  2.22505092
   0.02176058  0.00000000  6.19440508
   0.00654589  4.20972800  2.12401383
   0.00654589  4.20972800  6.29544217
   4.17441612  0.00000000  2.09927152
   4.17441612  0.00000000  6.32018448
   4.20299803  4.20972800  2.10777008
   4.20299803  4.20972800  6.31168592
   0.02176058  2.22505092  0.00000000
   0.00654589  2.12401383  4.20972800
   0.02176058  6.19440508  0.00000000
   0.00654589  6.29544217  4.20972800
   4.17441612  2.09927152  0.00000000
   4.20299803  2.10777008  4.20972800
   4.17441612  6.32018448  0.00000000
   4.20299803  6.31168592  4.20972800
 


--------------------------------------------------------------------------------------------------------


 k-point  1 :   0.2500 0.2500 0.2500  plane waves:   10834

 maximum and minimum number of plane-waves per node :     10834    10834

 maximum number of plane-waves:     10834
 maximum index in each direction: 
   IXMAX=   13   IYMAX=   13   IZMAX=   13
   IXMIN=  -13   IYMIN=  -13   IZMIN=  -13


 serial   3D FFT for wavefunctions
 parallel 3D FFT for charge:
    minimum data exchange during FFTs selected (reduces bandwidth)


 total amount of memory used by VASP MPI-rank0    50261. kBytes
=======================================================================

   base      :      30000. kBytes
   nonlr-proj:       8329. kBytes
   fftplans  :       1007. kBytes
   grid      :       7709. kBytes
   one-center:       1005. kBytes
   wavefun   :       2211. kBytes
 
     INWAV:  cpu time    0.2080: real time    0.3249
 Broyden mixing: mesh for mixing (old mesh)
   NGX = 27   NGY = 27   NGZ = 27
  (NGX  = 84   NGY  = 84   NGZ  = 84)
  gives a total of  19683 points

 charge density for first step will be calculated from the start-wavefunctions


--------------------------------------------------------------------------------------------------------


 Maximum index for non-local projection operator         1357
 Maximum index for augmentation-charges          362 (set IRDMAX)


--------------------------------------------------------------------------------------------------------


 initial charge from wavefunction
 First call to EWALD:  gamma=   0.211
 Maximum number of real-space cells 3x 3x 3
 Maximum number of reciprocal cells 3x 3x 3

    FEWALD:  cpu time    0.0000: real time    0.0032


--------------------------------------- Iteration      1(   1)  ---------------------------------------


    POTLOK:  cpu time    0.0280: real time    0.0353
    SETDIJ:  cpu time    0.5120: real time    0.5126
     EDDAV:  cpu time    0.6840: real time    0.6994
       DOS:  cpu time    0.0000: real time    0.0007
    CHARGE:  cpu time    0.0360: real time    0.0366
    MIXING:  cpu time    0.0040: real time    0.0005
    --------------------------------------------
      LOOP:  cpu time    1.2640: real time    1.2850

 eigenvalue-minimisations  :   864
 total energy-change (2. order) :-0.3790961E+03  (-0.7556931E-07)
 number of electron     249.0002185 magnetization       1.0000002
 augmentation part       20.5552964 magnetization       0.0485736

 Broyden mixing:
  rms(total) = 0.17628E-03    rms(broyden)= 0.17615E-03
  rms(prec ) = 0.28622E-03
  weight for this iteration     100.00

 Free energy of the ion-electron system (eV)
  ---------------------------------------------------
  alpha Z        PSCENC =       588.18717815
  Ewald energy   TEWEN  =    -10786.68609698
  -Hartree energ DENC   =     -4564.45606958
  -exchange      EXHF   =         0.00000000
  -V(xc)+E(xc)   XCENC  =      -539.19912108
  PAW double counting   =     17222.33944825   -15697.20441128
  entropy T*S    EENTRO =        -0.00000000
  eigenvalues    EBANDS =      -654.99412231
  atomic energy  EATOM  =     14052.91706009
  Solvation  Ediel_sol  =         0.00000000
  ---------------------------------------------------
  free energy    TOTEN  =      -379.09613474 eV

  energy without entropy =     -379.09613474  energy(sigma->0) =     -379.09613474


--------------------------------------------------------------------------------------------------------




--------------------------------------- Iteration      1(   2)  ---------------------------------------


    POTLOK:  cpu time    0.0280: real time    0.0308
    SETDIJ:  cpu time    0.5960: real time    0.5966
     EDDAV:  cpu time    0.4640: real time    0.4640
       DOS:  cpu time    0.0000: real time    0.0005
    --------------------------------------------
      LOOP:  cpu time    1.0880: real time    1.0919

 eigenvalue-minimisations  :   540
 total energy-change (2. order) : 0.1171957E-06  (-0.2124643E-07)
 number of electron     249.0002185 magnetization       1.0000002
 augmentation part       20.5552964 magnetization       0.0485736

 Free energy of the ion-electron system (eV)
  ---------------------------------------------------
  alpha Z        PSCENC =       588.18717815
  Ewald energy   TEWEN  =    -10786.68609698
  -Hartree energ DENC   =     -4564.45726780
  -exchange      EXHF   =         0.00000000
  -V(xc)+E(xc)   XCENC  =      -539.19905123
  PAW double counting   =     17222.34268290   -15697.20766959
  entropy T*S    EENTRO =        -0.00000000
  eigenvalues    EBANDS =      -654.99297017
  atomic energy  EATOM  =     14052.91706009
  Solvation  Ediel_sol  =         0.00000000
  ---------------------------------------------------
  free energy    TOTEN  =      -379.09613462 eV

  energy without entropy =     -379.09613462  energy(sigma->0) =     -379.09613462


--------------------------------------------------------------------------------------------------------




 average (electrostatic) potential at core
  the test charge radii are     1.0714  0.7215
  (the norm of the test charge is              1.0000)
       1 -34.4903       2 -34.4903       3 -34.8428       4 -34.9178       5 -34.9970
       6 -34.9970       7 -35.0529       8 -34.8300       9 -34.8300      10 -34.8300
      11 -34.8300      12 -35.0795      13 -35.0795      14 -35.0795      15 -35.0795
      16 -35.1850      17 -35.1850      18 -35.1804      19 -35.1804      20 -34.9181
      21 -34.9181      22 -35.0620      23 -35.0620      24 -35.1850      25 -35.1804
      26 -35.1850      27 -35.1804      28 -34.9181      29 -35.0620      30 -34.9181
      31 -35.0620      32 -70.0106      33 -70.0106      34 -70.0895      35 -69.2853
      36 -69.8546      37 -69.8546      38 -69.9814      39 -70.1370      40 -70.1370
      41 -70.1370      42 -70.1370      43 -69.9827      44 -69.9827      45 -69.9827
      46 -69.9827      47 -69.3200      48 -69.3200      49 -69.7674      50 -69.7674
      51 -69.9756      52 -69.9756      53 -70.0045      54 -70.0045      55 -69.3200
      56 -69.7674      57 -69.3200      58 -69.7674      59 -69.9756      60 -70.0045
      61 -69.9756      62 -70.0045
 
 
 
 E-fermi :   5.5948     XC(G=0): -11.1478     alpha+bet :-12.7802


 spin component 1

 k-point     1 :       0.2500    0.2500    0.2500
  band No.  band energies     occupation 
      1     -14.2694      1.00000
      2     -13.9218      1.00000
      3     -13.8713      1.00000
      4     -13.8319      1.00000
      5     -13.5906      1.00000
      6     -13.5667      1.00000
      7     -13.5174      1.00000
      8     -13.3797      1.00000
      9     -13.3569      1.00000
     10     -13.3453      1.00000
     11     -13.2930      1.00000
     12     -13.2198      1.00000
     13     -13.1750      1.00000
     14     -13.1584      1.00000
     15     -13.1510      1.00000
     16     -13.1341      1.00000
     17     -13.1160      1.00000
     18     -13.1000      1.00000
     19     -13.0072      1.00000
     20     -12.9620      1.00000
     21     -12.9470      1.00000
     22     -12.9249      1.00000
     23     -12.8951      1.00000
     24     -12.8836      1.00000
     25     -12.8633      1.00000
     26     -12.7759      1.00000
     27     -12.6306      1.00000
     28     -12.5398      1.00000
     29     -12.5274      1.00000
     30     -12.4689      1.00000
     31     -12.4266      1.00000
     32      -1.6405      1.00000
     33      -1.6324      1.00000
     34      -1.5503      1.00000
     35      -1.3741      1.00000
     36      -1.2244      1.00000
     37      -1.1640      1.00000
     38      -1.1354      1.00000
     39      -1.0956      1.00000
     40      -1.0766      1.00000
     41      -1.0111      1.00000
     42      -1.0059      1.00000
     43      -0.9969      1.00000
     44      -0.9477      1.00000
     45      -0.9355      1.00000
     46      -0.8885      1.00000
     47      -0.8160      1.00000
     48      -0.7821      1.00000
     49      -0.7656      1.00000
     50      -0.7535      1.00000
     51      -0.7022      1.00000
     52      -0.6810      1.00000
     53      -0.5815      1.00000
     54      -0.5111      1.00000
     55      -0.4707      1.00000
     56      -0.4395      1.00000
     57      -0.2970      1.00000
     58      -0.2827      1.00000
     59       0.0335      1.00000
     60       0.2067      1.00000
     61       0.2116      1.00000
     62       0.2622      1.00000
     63       0.2831      1.00000
     64       0.3485      1.00000
     65       0.3901      1.00000
     66       0.4240      1.00000
     67       0.4779      1.00000
     68       0.5111      1.00000
     69       0.5405      1.00000
     70       0.6716      1.00000
     71       0.7672      1.00000
     72       0.9758      1.00000
     73       1.0157      1.00000
     74       1.0170      1.00000
     75       1.0703      1.00000
     76       1.1260      1.00000
     77       1.1354      1.00000
     78       1.1831      1.00000
     79       1.2082      1.00000
     80       1.2578      1.00000
     81       1.3716      1.00000
     82       1.3746      1.00000
     83       1.3973      1.00000
     84       1.4350      1.00000
     85       1.4399      1.00000
     86       1.5219      1.00000
     87       1.5519      1.00000
     88       1.5757      1.00000
     89       1.5919      1.00000
     90       1.5955      1.00000
     91       1.6181      1.00000
     92       1.6365      1.00000
     93       1.6631      1.00000
     94       1.6962      1.00000
     95       1.7580      1.00000
     96       1.7888      1.00000
     97       1.8039      1.00000
     98       1.8196      1.00000
     99       1.8781      1.00000
    100       1.9052      1.00000
    101       1.9070      1.00000
    102       1.9321      1.00000
    103       1.9401      1.00000
    104       1.9603      1.00000
    105       1.9666      1.00000
    106       1.9824      1.00000
    107       1.9841      1.00000
    108       2.0431      1.00000
    109       2.0516      1.00000
    110       2.1122      1.00000
    111       2.1985      1.00000
    112       2.2278      1.00000
    113       2.2732      1.00000
    114       2.2987      1.00000
    115       2.3198      1.00000
    116       2.3348      1.00000
    117       2.3719      1.00000
    118       2.3962      1.00000
    119       2.4636      1.00000
    120       2.4714      1.00000
    121       2.5677      1.00000
    122       2.7544      1.00000
    123       2.8033      1.00000
    124       2.8800      1.00000
    125       5.0986      1.00000
    126       8.4605      0.00000
    127       9.2323      0.00000
    128       9.4433      0.00000
    129       9.9062      0.00000
    130      10.2748      0.00000
    131      10.4423      0.00000
    132      10.5051      0.00000
    133      10.6051      0.00000
    134      10.9643      0.00000
    135      11.0707      0.00000
    136      11.3556      0.00000
    137      11.4501      0.00000
    138      11.5088      0.00000
    139      11.8229      0.00000
    140      11.9380      0.00000
    141      11.9486      0.00000
    142      12.1473      0.00000
    143      12.2280      0.00000
    144      12.2588      0.00000
    145      12.3044      0.00000
    146      12.3787      0.00000
    147      12.4206      0.00000
    148      12.4428      0.00000
    149      12.5457      0.00000
    150      12.5780      0.00000
    151      12.6943      0.00000
    152      12.8926      0.00000
    153      13.0060      0.00000
    154      13.1110      0.00000
    155      13.1373      0.00000
    156      13.2866      0.00000
    157      13.3208      0.00000
    158      13.3536      0.00000
    159      13.3770      0.00000
    160      13.4451      0.00000
    161      13.5024      0.00000
    162      13.5133      0.00000
    163      13.5649      0.00000
    164      13.5922      0.00000
    165      13.8155      0.00000
    166      14.2906      0.00000
    167      14.3328      0.00000
    168      14.3472      0.00000
    169      14.3826      0.00000
    170      14.4205      0.00000
    171      14.4506      0.00000
    172      14.4897      0.00000
    173      14.5337      0.00000
    174      14.6048      0.00000
    175      14.6113      0.00000
    176      14.7162      0.00000
    177      14.7933      0.00000
    178      14.8815      0.00000
    179      14.9271      0.00000
    180      14.9323      0.00000
    181      14.9932      0.00000
    182      15.0265      0.00000
    183      15.0428      0.00000
    184      15.0767      0.00000
    185      15.0937      0.00000
    186      15.1520      0.00000
    187      15.2069      0.00000
    188      15.2562      0.00000
    189      15.2606      0.00000
    190      15.2918      0.00000
    191      15.3169      0.00000
    192      15.3610      0.00000
    193      15.3732      0.00000
    194      15.6085      0.00000
    195      15.6587      0.00000
    196      15.7134      0.00000
    197      15.8340      0.00000
    198      15.9223      0.00000
    199      15.9924      0.00000
    200      16.5817      0.00000
    201      16.6238      0.00000
    202      16.6519      0.00000
    203      16.6522      0.00000
    204      16.7231      0.00000
    205      16.7259      0.00000
    206      16.8845      0.00000
    207      16.9171      0.00000
    208      16.9552      0.00000
    209      17.0788      0.00000
    210      17.4982      0.00000
    211      17.6244      0.00000
    212      17.6555      0.00000
    213      17.8497      0.00000
    214      18.2746      0.00000
    215      18.2927      0.00000
    216      18.4246      0.00000

 spin component 2

 k-point     1 :       0.2500    0.2500    0.2500
  band No.  band energies     occupation 
      1     -14.2591      1.00000
      2     -13.9101      1.00000
      3     -13.8600      1.00000
      4     -13.8224      1.00000
      5     -13.5722      1.00000
      6     -13.5593      1.00000
      7     -13.5067      1.00000
      8     -13.3670      1.00000
      9     -13.3458      1.00000
     10     -13.3296      1.00000
     11     -13.2853      1.00000
     12     -13.2096      1.00000
     13     -13.1659      1.00000
     14     -13.1487      1.00000
     15     -13.1438      1.00000
     16     -13.1282      1.00000
     17     -13.0993      1.00000
     18     -13.0861      1.00000
     19     -12.9871      1.00000
     20     -12.9539      1.00000
     21     -12.9416      1.00000
     22     -12.9022      1.00000
     23     -12.8916      1.00000
     24     -12.8773      1.00000
     25     -12.8591      1.00000
     26     -12.7712      1.00000
     27     -12.6205      1.00000
     28     -12.5259      1.00000
     29     -12.5155      1.00000
     30     -12.4616      1.00000
     31     -12.4141      1.00000
     32      -1.6251      1.00000
     33      -1.6227      1.00000
     34      -1.5380      1.00000
     35      -1.3409      1.00000
     36      -1.1831      1.00000
     37      -1.1561      1.00000
     38      -1.1280      1.00000
     39      -1.0889      1.00000
     40      -1.0406      1.00000
     41      -0.9988      1.00000
     42      -0.9968      1.00000
     43      -0.9880      1.00000
     44      -0.9364      1.00000
     45      -0.9278      1.00000
     46      -0.8775      1.00000
     47      -0.8085      1.00000
     48      -0.7754      1.00000
     49      -0.7561      1.00000
     50      -0.7209      1.00000
     51      -0.6884      1.00000
     52      -0.6667      1.00000
     53      -0.5664      1.00000
     54      -0.4873      1.00000
     55      -0.4526      1.00000
     56      -0.4280      1.00000
     57      -0.2793      1.00000
     58      -0.2560      1.00000
     59       0.0571      1.00000
     60       0.2196      1.00000
     61       0.2267      1.00000
     62       0.2845      1.00000
     63       0.2925      1.00000
     64       0.3643      1.00000
     65       0.4168      1.00000
     66       0.4351      1.00000
     67       0.4971      1.00000
     68       0.5198      1.00000
     69       0.5610      1.00000
     70       0.6911      1.00000
     71       0.7839      1.00000
     72       0.9855      1.00000
     73       1.0286      1.00000
     74       1.0300      1.00000
     75       1.0808      1.00000
     76       1.1398      1.00000
     77       1.1500      1.00000
     78       1.1942      1.00000
     79       1.2211      1.00000
     80       1.2679      1.00000
     81       1.3799      1.00000
     82       1.3893      1.00000
     83       1.4061      1.00000
     84       1.4477      1.00000
     85       1.4507      1.00000
     86       1.5348      1.00000
     87       1.5662      1.00000
     88       1.5876      1.00000
     89       1.6017      1.00000
     90       1.6036      1.00000
     91       1.6303      1.00000
     92       1.6464      1.00000
     93       1.6749      1.00000
     94       1.7054      1.00000
     95       1.7684      1.00000
     96       1.8010      1.00000
     97       1.8225      1.00000
     98       1.8279      1.00000
     99       1.8867      1.00000
    100       1.9138      1.00000
    101       1.9150      1.00000
    102       1.9397      1.00000
    103       1.9572      1.00000
    104       1.9723      1.00000
    105       1.9789      1.00000
    106       1.9921      1.00000
    107       1.9965      1.00000
    108       2.0500      1.00000
    109       2.0653      1.00000
    110       2.1246      1.00000
    111       2.2136      1.00000
    112       2.2373      1.00000
    113       2.2820      1.00000
    114       2.3084      1.00000
    115       2.3296      1.00000
    116       2.3481      1.00000
    117       2.3829      1.00000
    118       2.4053      1.00000
    119       2.4713      1.00000
    120       2.4822      1.00000
    121       2.5776      1.00000
    122       2.7661      1.00000
    123       2.8131      1.00000
    124       2.8933      1.00000
    125       6.4959      0.00000
    126       8.6054      0.00000
    127       9.6047      0.00000
    128       9.7486      0.00000
    129      10.2315      0.00000
    130      10.3601      0.00000
    131      10.5751      0.00000
    132      10.6253      0.00000
    133      10.7197      0.00000
    134      11.0910      0.00000
    135      11.2138      0.00000
    136      11.4669      0.00000
    137      11.4992      0.00000
    138      11.5575      0.00000
    139      11.9080      0.00000
    140      11.9618      0.00000
    141      11.9683      0.00000
    142      12.2066      0.00000
    143      12.2363      0.00000
    144      12.2681      0.00000
    145      12.3127      0.00000
    146      12.4144      0.00000
    147      12.4441      0.00000
    148      12.5064      0.00000
    149      12.5985      0.00000
    150      12.6082      0.00000
    151      12.7273      0.00000
    152      12.9573      0.00000
    153      13.0697      0.00000
    154      13.1300      0.00000
    155      13.1607      0.00000
    156      13.2968      0.00000
    157      13.3380      0.00000
    158      13.3609      0.00000
    159      13.3914      0.00000
    160      13.5098      0.00000
    161      13.5505      0.00000
    162      13.5520      0.00000
    163      13.6231      0.00000
    164      13.6564      0.00000
    165      13.9002      0.00000
    166      14.2993      0.00000
    167      14.3406      0.00000
    168      14.3604      0.00000
    169      14.3914      0.00000
    170      14.4502      0.00000
    171      14.4804      0.00000
    172      14.5026      0.00000
    173      14.5611      0.00000
    174      14.6257      0.00000
    175      14.6360      0.00000
    176      14.7386      0.00000
    177      14.8129      0.00000
    178      14.8970      0.00000
    179      14.9501      0.00000
    180      14.9505      0.00000
    181      15.0306      0.00000
    182      15.0456      0.00000
    183      15.0576      0.00000
    184      15.1113      0.00000
    185      15.1138      0.00000
    186      15.1994      0.00000
    187      15.2426      0.00000
    188      15.2747      0.00000
    189      15.2776      0.00000
    190      15.3141      0.00000
    191      15.3575      0.00000
    192      15.4180      0.00000
    193      15.4233      0.00000
    194      15.6285      0.00000
    195      15.6859      0.00000
    196      15.7321      0.00000
    197      15.8779      0.00000
    198      15.9462      0.00000
    199      16.0057      0.00000
    200      16.6226      0.00000
    201      16.6436      0.00000
    202      16.6751      0.00000
    203      16.6978      0.00000
    204      16.7436      0.00000
    205      16.7533      0.00000
    206      16.9210      0.00000
    207      16.9494      0.00000
    208      17.0001      0.00000
    209      17.1070      0.00000
    210      17.5868      0.00000
    211      17.6562      0.00000
    212      17.8192      0.00000
    213      18.1012      0.00000
    214      18.3052      0.00000
    215      18.3484      0.00000
    216      18.4794      0.00000


--------------------------------------------------------------------------------------------------------


 soft charge-density along one line, spin component           1
         0         1         2         3         4         5         6         7         8         9
 total charge-density along one line
 
 soft charge-density along one line, spin component           2
         0         1         2         3         4         5         6         7         8         9
 total charge-density along one line
 
 pseudopotential strength for first ion, spin component:           1
  2.995   9.492  -0.000   0.000   0.000  -0.000   0.000   0.001
  9.492  29.927  -0.000   0.000   0.001  -0.000   0.000   0.003
 -0.000  -0.000   7.404   0.000  -0.000  10.683   0.000  -0.000
  0.000   0.000   0.000   7.404   0.000   0.000  10.679   0.000
  0.000   0.001  -0.000   0.000   7.405  -0.000   0.000  10.685
 -0.000  -0.000  10.683   0.000  -0.000  14.641   0.000  -0.000
  0.000   0.000   0.000  10.679   0.000   0.000  14.632   0.000
  0.001   0.003  -0.000   0.000  10.685  -0.000   0.000  14.644
 -0.000  -0.000   0.001   0.000  -0.000   0.001   0.000  -0.000
  0.000   0.000   0.000  -0.000   0.000   0.000  -0.000   0.000
 -0.002  -0.005   0.000   0.000  -0.000   0.000   0.000  -0.001
  0.000   0.000   0.000   0.001   0.000   0.000   0.001   0.000
  0.000   0.001   0.000   0.000   0.001   0.000   0.000   0.001
 pseudopotential strength for first ion, spin component:           2
  2.995   9.492  -0.000   0.000   0.000  -0.000   0.000   0.001
  9.492  29.927  -0.000   0.000   0.001  -0.000   0.000   0.003
 -0.000  -0.000   7.404   0.000  -0.000  10.683   0.000  -0.000
  0.000   0.000   0.000   7.404   0.000   0.000  10.679   0.000
  0.000   0.001  -0.000   0.000   7.405  -0.000   0.000  10.684
 -0.000  -0.000  10.683   0.000  -0.000  14.641   0.000  -0.000
  0.000   0.000   0.000  10.679   0.000   0.000  14.632   0.000
  0.001   0.003  -0.000   0.000  10.684  -0.000   0.000  14.644
 -0.000  -0.000   0.001   0.000  -0.000   0.001   0.000  -0.000
  0.000   0.000   0.000  -0.000   0.000   0.000  -0.000   0.000
 -0.002  -0.006   0.000   0.000  -0.000   0.000   0.000  -0.001
  0.000   0.000   0.000   0.001   0.000   0.000   0.001   0.000
  0.000   0.001   0.000   0.000   0.001   0.000   0.000   0.001
 total augmentation occupancy for first ion, spin component:           1
  1.151  -0.059   0.000   0.000  -0.004   0.000   0.000   0.001   0.000  -0.000   0.060   0.000  -0.002
 -0.059   0.003   0.000   0.000   0.000   0.000   0.000  -0.000   0.000   0.000  -0.003   0.000   0.000
  0.000   0.000   0.118   0.000   0.000  -0.013   0.000   0.000   0.001   0.000   0.000   0.000   0.000
  0.000   0.000   0.000   0.177   0.000   0.000  -0.019   0.000   0.000   0.000   0.000   0.003   0.000
 -0.004   0.000   0.000   0.000   0.115   0.000   0.000  -0.013   0.000   0.000   0.004   0.000  -0.004
  0.000   0.000  -0.013   0.000   0.000   0.001   0.000   0.000  -0.000   0.000   0.000   0.000   0.000
  0.000   0.000   0.000  -0.019   0.000   0.000   0.002   0.000   0.000   0.000  -0.000  -0.000   0.000
  0.001  -0.000   0.000   0.000  -0.013   0.000   0.000   0.001   0.000   0.000  -0.000   0.000   0.000
  0.000   0.000   0.001   0.000   0.000  -0.000   0.000   0.000   0.012   0.000   0.000   0.000   0.000
  0.000   0.000   0.000   0.000   0.000   0.000   0.000   0.000   0.000   0.017  -0.000   0.000   0.000
  0.060  -0.003   0.000  -0.000   0.004   0.000  -0.000  -0.000   0.000  -0.000   0.072  -0.000   0.001
  0.000   0.000   0.000   0.003   0.000   0.000  -0.000   0.000   0.000   0.000   0.000   0.017  -0.000
 -0.002   0.000   0.000   0.000  -0.004   0.000   0.000   0.000   0.000   0.000   0.001   0.000   0.048
 total augmentation occupancy for first ion, spin component:           2
  0.002  -0.000   0.000   0.000  -0.000   0.000   0.000   0.000   0.000   0.000   0.000   0.000   0.000
 -0.000   0.000   0.000   0.000   0.000   0.000   0.000  -0.000   0.000   0.000  -0.000   0.000  -0.000
  0.000   0.000   0.000   0.000   0.000  -0.000   0.000   0.000  -0.000  -0.000   0.000   0.000   0.000
  0.000   0.000   0.000   0.000   0.000   0.000  -0.000   0.000   0.000   0.000   0.000  -0.000   0.000
 -0.000   0.000   0.000   0.000   0.000   0.000   0.000  -0.000   0.000   0.000  -0.000   0.000  -0.000
  0.000   0.000  -0.000   0.000   0.000   0.000   0.000   0.000   0.000   0.000   0.000   0.000   0.000
  0.000   0.000   0.000  -0.000   0.000   0.000   0.000   0.000   0.000   0.000   0.000   0.000   0.000
  0.000  -0.000   0.000   0.000  -0.000   0.000   0.000   0.000   0.000   0.000   0.000   0.000   0.000
  0.000   0.000  -0.000   0.000   0.000   0.000   0.000   0.000  -0.000   0.000   0.000   0.000   0.000
  0.000   0.000  -0.000   0.000   0.000   0.000   0.000   0.000   0.000  -0.000   0.000   0.000  -0.000
  0.000  -0.000   0.000   0.000  -0.000   0.000   0.000   0.000   0.000   0.000   0.000  -0.000  -0.000
  0.000   0.000   0.000  -0.000   0.000   0.000   0.000   0.000   0.000   0.000   0.000   0.000   0.000
  0.000  -0.000   0.000   0.000  -0.000   0.000   0.000   0.000   0.000  -0.000  -0.000   0.000   0.000


------------------------ aborting loop because EDIFF is reached ----------------------------------------


 


 total charge     
 
# of ion       s       p       d       tot
------------------------------------------
    1        0.163   0.202   0.092   0.457
    2        0.163   0.202   0.092   0.457
    3        0.153   0.186   0.083   0.422
    4        0.166   0.193   0.083   0.442
    5        0.152   0.185   0.082   0.420
    6        0.152   0.185   0.082   0.420
    7        0.152   0.185   0.082   0.419
    8        0.151   0.182   0.080   0.413
    9        0.151   0.182   0.080   0.413
   10        0.151   0.182   0.080   0.413
   11        0.151   0.182   0.080   0.413
   12        0.151   0.182   0.081   0.414
   13        0.151   0.182   0.081   0.414
   14        0.151   0.182   0.081   0.414
   15        0.151   0.182   0.081   0.414
   16        0.159   0.184   0.078   0.421
   17        0.159   0.184   0.078   0.421
   18        0.151   0.182   0.080   0.412
   19        0.151   0.182   0.080   0.412
   20        0.150   0.180   0.079   0.409
   21        0.150   0.180   0.079   0.409
   22        0.150   0.181   0.080   0.411
   23        0.150   0.181   0.080   0.411
   24        0.159   0.184   0.078   0.421
   25        0.151   0.182   0.080   0.412
   26        0.159   0.184   0.078   0.421
   27        0.151   0.182   0.080   0.412
   28        0.150   0.180   0.079   0.409
   29        0.150   0.181   0.080   0.411
   30        0.150   0.180   0.079   0.409
   31        0.150   0.181   0.080   0.411
   32        1.564   3.574   0.000   5.138
   33        1.564   3.574   0.000   5.138
   34        1.564   3.559   0.000   5.123
   35        1.565   3.572   0.000   5.137
   36        1.564   3.553   0.000   5.117
   37        1.564   3.553   0.000   5.117
   38        1.563   3.558   0.000   5.121
   39        1.565   3.556   0.000   5.121
   40        1.566   3.553   0.000   5.118
   41        1.566   3.553   0.000   5.118
   42        1.565   3.556   0.000   5.121
   43        1.564   3.559   0.000   5.123
   44        1.564   3.559   0.000   5.122
   45        1.564   3.559   0.000   5.122
   46        1.564   3.559   0.000   5.123
   47        1.565   3.563   0.000   5.128
   48        1.565   3.566   0.000   5.131
   49        1.564   3.552   0.000   5.116
   50        1.564   3.552   0.000   5.116
   51        1.565   3.547   0.000   5.112
   52        1.566   3.543   0.000   5.109
   53        1.563   3.554   0.000   5.118
   54        1.563   3.554   0.000   5.118
   55        1.565   3.563   0.000   5.128
   56        1.564   3.552   0.000   5.116
   57        1.565   3.566   0.000   5.131
   58        1.564   3.552   0.000   5.116
   59        1.565   3.547   0.000   5.112
   60        1.563   3.554   0.000   5.118
   61        1.566   3.543   0.000   5.109
   62        1.563   3.554   0.000   5.118
--------------------------------------------------
tot         53.243 115.959   2.506 171.708
 


 magnetization (x)
 
# of ion       s       p       d       tot
------------------------------------------
    1        0.000   0.000   0.000   0.001
    2        0.000   0.000   0.000   0.001
    3        0.000  -0.000  -0.000   0.000
    4        0.009   0.013   0.004   0.026
    5        0.000   0.000   0.000   0.001
    6        0.000   0.000   0.000   0.001
    7        0.000  -0.000  -0.000   0.000
    8       -0.000  -0.000  -0.000  -0.000
    9       -0.000  -0.000  -0.000  -0.000
   10       -0.000  -0.000  -0.000  -0.000
   11       -0.000  -0.000  -0.000  -0.000
   12       -0.000  -0.000  -0.000  -0.000
   13       -0.000  -0.000  -0.000  -0.000
   14       -0.000  -0.000  -0.000  -0.000
   15       -0.000  -0.000  -0.000  -0.000
   16        0.007   0.009   0.003   0.019
   17        0.006   0.009   0.003   0.019
   18        0.000   0.000   0.000   0.001
   19        0.000   0.000   0.000   0.001
   20        0.000   0.000   0.000   0.001
   21        0.000   0.000   0.000   0.001
   22        0.000  -0.000  -0.000   0.000
   23        0.000  -0.000  -0.000   0.000
   24        0.007   0.009   0.003   0.019
   25        0.000   0.000   0.000   0.001
   26        0.006   0.009   0.003   0.019
   27        0.000   0.000   0.000   0.001
   28        0.000   0.000   0.000   0.001
   29        0.000  -0.000  -0.000   0.000
   30        0.000   0.000   0.000   0.001
   31        0.000  -0.000  -0.000   0.000
   32        0.000   0.000   0.000   0.000
   33        0.000   0.000   0.000   0.000
   34        0.000   0.002   0.000   0.003
   35       -0.000   0.000   0.000   0.000
   36        0.000   0.003   0.000   0.003
   37        0.000   0.003   0.000   0.003
   38        0.000   0.000   0.000   0.000
   39        0.002   0.014   0.000   0.015
   40        0.002   0.011   0.000   0.013
   41        0.002   0.011   0.000   0.013
   42        0.002   0.014   0.000   0.015
   43        0.000   0.001   0.000   0.001
   44        0.000   0.001   0.000   0.001
   45        0.000   0.001   0.000   0.001
   46        0.000   0.000   0.000   0.001
   47        0.001   0.006   0.000   0.007
   48        0.001   0.009   0.000   0.010
   49        0.000   0.001   0.000   0.001
   50        0.000   0.001   0.000   0.001
   51        0.002   0.019   0.000   0.021
   52        0.002   0.016   0.000   0.019
   53        0.000   0.001   0.000   0.001
   54        0.000   0.001   0.000   0.001
   55        0.001   0.006   0.000   0.007
   56        0.000   0.001   0.000   0.001
   57        0.001   0.009   0.000   0.010
   58        0.000   0.001   0.000   0.001
   59        0.002   0.019   0.000   0.021
   60        0.000   0.001   0.000   0.001
   61        0.002   0.016   0.000   0.019
   62        0.000   0.001   0.000   0.001
--------------------------------------------------
tot          0.061   0.219   0.019   0.298
 
    CHARGE:  cpu time    0.0360: real time    0.0363
    FORLOC:  cpu time    0.0040: real time    0.0039
    FORNL :  cpu time    0.1400: real time    0.1456
    STRESS:  cpu time    0.5280: real time    0.5395
    FORCOR:  cpu time    0.0280: real time    0.0295
    FORHAR:  cpu time    0.0080: real time    0.0065
    MIXING:  cpu time    0.0000: real time    0.0026
    OFIELD:  cpu time    0.0000: real time    0.0000

  FORCE on cell =-STRESS in cart. coord.  units (eV):
  Direction    XX          YY          ZZ          XY          YZ          ZX
  --------------------------------------------------------------------------------------
  Alpha Z   588.18718   588.18718   588.18718
  Ewald   -3510.76650 -3637.98889 -3637.98889    -0.00000    -0.00000    -0.00000
  Hartree  1571.54794  1496.45619  1496.45619    -0.00000    -0.00000    -0.00000
  E(xc)   -1119.98294 -1119.90144 -1119.90144    -0.00000    -0.00000     0.00000
  Local   -1563.74982 -1362.53254 -1362.53254    -0.00000    -0.00000    -0.00000
  n-local  -578.00058  -578.89129  -578.89129     0.06067     0.06437     0.06062
  augment   212.07989   212.30726   212.30726     0.00000    -0.00000    -0.00000
  Kinetic  4389.35007  4393.63391  4393.63391    -1.50099    -1.45373    -1.50099
  Fock        0.00000     0.00000     0.00000     0.00000     0.00000     0.00000
  -------------------------------------------------------------------------------------
  Total     -11.33475    -8.72962    -8.72962     0.00000     0.00000     0.00000
  in kB     -30.42780   -23.43441   -23.43441     0.00000     0.00000     0.00000
  external pressure =      -25.77 kB  Pullay stress =        0.00 kB


 VOLUME and BASIS-vectors are now :
 -----------------------------------------------------------------------------
  energy-cutoff  :      400.00
  volume of cell :      596.83
      direct lattice vectors                 reciprocal lattice vectors
     8.419456000  0.000000000  0.000000000     0.118772519  0.000000000  0.000000000
     0.000000000  8.419456000  0.000000000     0.000000000  0.118772519  0.000000000
     0.000000000  0.000000000  8.419456000     0.000000000  0.000000000  0.118772519

  length of vectors
     8.419456000  8.419456000  8.419456000     0.118772519  0.118772519  0.118772519


 FORCES acting on ions
    electron-ion (+dipol)            ewald-force                    non-local-force                 convergence-correction
 -----------------------------------------------------------------------------------------------
   -.252E+01 0.531E-14 -.128E-05   0.237E+01 0.622E-14 0.832E-15   0.140E+00 0.000E+00 -.217E-18   -.191E-03 -.188E-14 -.305E-14
   -.252E+01 -.187E-11 -.127E-05   0.237E+01 0.999E-14 -.781E-14   0.140E+00 0.000E+00 0.136E-19   -.191E-03 0.117E-14 0.253E-14
   -.120E+01 -.737E-12 -.677E-06   0.111E+01 0.151E-13 0.687E-14   0.730E-01 0.000E+00 0.000E+00   -.226E-03 0.278E-14 -.278E-14
   0.416E+02 0.189E-12 -.162E-05   -.391E+02 -.160E-13 -.724E-14   -.258E+01 0.000E+00 -.434E-18   0.981E-04 -.482E-15 0.477E-14
   0.210E+01 -.401E-13 0.112E-05   -.193E+01 0.000E+00 -.675E-14   -.174E+00 0.000E+00 0.000E+00   0.201E-03 -.638E-15 -.448E-14
   0.210E+01 0.120E-11 0.111E-05   -.193E+01 -.311E-14 -.713E-14   -.174E+00 0.000E+00 0.000E+00   0.201E-03 0.111E-14 0.383E-14
   0.119E+01 0.477E-12 0.643E-06   -.110E+01 0.000E+00 -.400E-15   -.806E-01 0.000E+00 0.000E+00   0.233E-03 0.520E-15 -.257E-14
   -.443E+01 0.950E+01 0.950E+01   0.445E+01 -.101E+02 -.101E+02   -.163E-01 0.565E+00 0.565E+00   -.191E-03 -.955E-04 -.955E-04
   -.443E+01 0.950E+01 -.950E+01   0.445E+01 -.101E+02 0.101E+02   -.163E-01 0.565E+00 -.565E+00   -.191E-03 -.955E-04 0.955E-04
   -.443E+01 -.950E+01 0.950E+01   0.445E+01 0.101E+02 -.101E+02   -.163E-01 -.565E+00 0.565E+00   -.191E-03 0.955E-04 -.955E-04
   -.443E+01 -.950E+01 -.950E+01   0.445E+01 0.101E+02 0.101E+02   -.163E-01 -.565E+00 -.565E+00   -.191E-03 0.955E-04 0.955E-04
   0.419E+01 0.570E+01 0.570E+01   -.417E+01 -.586E+01 -.586E+01   -.199E-01 0.164E+00 0.164E+00   0.187E-03 -.104E-03 -.104E-03
   0.419E+01 0.570E+01 -.570E+01   -.417E+01 -.586E+01 0.586E+01   -.199E-01 0.164E+00 -.164E+00   0.187E-03 -.104E-03 0.104E-03
   0.419E+01 -.570E+01 0.570E+01   -.417E+01 0.586E+01 -.586E+01   -.199E-01 -.164E+00 0.164E+00   0.187E-03 0.104E-03 -.104E-03
   0.419E+01 -.570E+01 -.570E+01   -.417E+01 0.586E+01 0.586E+01   -.199E-01 -.164E+00 -.164E+00   0.187E-03 0.104E-03 0.104E-03
   0.138E+01 -.110E-12 0.449E+02   -.200E+01 0.160E-13 -.431E+02   0.620E+00 0.000E+00 -.175E+01   -.342E-03 -.259E-14 -.107E-03
   0.138E+01 0.154E-12 -.449E+02   -.200E+01 0.133E-13 0.431E+02   0.620E+00 0.000E+00 0.175E+01   -.342E-03 -.246E-14 0.107E-03
   -.281E-01 0.140E-12 0.345E+01   -.183E+00 -.178E-14 -.344E+01   0.219E+00 0.000E+00 -.105E-01   -.343E-03 0.228E-14 -.149E-03
   -.281E-01 0.116E-12 -.345E+01   -.183E+00 -.178E-14 0.344E+01   0.219E+00 0.000E+00 0.105E-01   -.343E-03 0.306E-14 0.149E-03
   -.280E+01 -.208E-12 0.704E+01   0.360E+01 -.178E-14 -.772E+01   -.794E+00 0.000E+00 0.669E+00   0.333E-03 0.958E-15 -.911E-05
   -.280E+01 -.918E-13 -.704E+01   0.360E+01 -.799E-14 0.772E+01   -.794E+00 0.000E+00 -.669E+00   0.333E-03 0.162E-15 0.911E-05
   0.647E-01 -.780E-12 0.201E+01   0.139E+00 -.275E-13 -.215E+01   -.206E+00 0.000E+00 0.138E+00   0.339E-03 -.464E-15 -.114E-03
   0.647E-01 -.824E-12 -.201E+01   0.139E+00 -.142E-13 0.215E+01   -.206E+00 0.000E+00 -.138E+00   0.339E-03 -.543E-15 0.114E-03
   0.138E+01 0.449E+02 0.421E-06   -.200E+01 -.431E+02 0.620E-14   0.620E+00 -.175E+01 0.000E+00   -.342E-03 -.107E-03 0.335E-14
   -.281E-01 0.345E+01 -.115E-05   -.183E+00 -.344E+01 -.174E-14   0.219E+00 -.105E-01 0.000E+00   -.343E-03 -.149E-03 -.326E-14
   0.138E+01 -.449E+02 -.338E-05   -.200E+01 0.431E+02 0.634E-14   0.620E+00 0.175E+01 0.000E+00   -.342E-03 0.107E-03 0.312E-14
   -.281E-01 -.345E+01 -.167E-05   -.183E+00 0.344E+01 -.798E-14   0.219E+00 0.105E-01 0.000E+00   -.343E-03 0.149E-03 -.283E-14
   -.280E+01 0.704E+01 -.888E-06   0.360E+01 -.772E+01 0.472E-14   -.794E+00 0.669E+00 0.000E+00   0.333E-03 -.911E-05 0.340E-14
   0.647E-01 0.201E+01 0.494E-06   0.139E+00 -.215E+01 -.136E-13   -.206E+00 0.138E+00 -.136E-19   0.339E-03 -.114E-03 -.326E-14
   -.280E+01 -.704E+01 0.228E-05   0.360E+01 0.772E+01 0.109E-14   -.794E+00 -.669E+00 0.000E+00   0.333E-03 0.911E-05 0.297E-14
   0.647E-01 -.201E+01 0.234E-05   0.139E+00 0.215E+01 -.135E-13   -.206E+00 -.138E+00 -.136E-19   0.339E-03 0.114E-03 -.305E-14
   0.967E+00 0.283E-14 0.348E-04   -.134E+01 -.284E-13 -.593E-14   0.370E+00 0.000E+00 0.000E+00   -.201E-02 0.126E-14 -.157E-13
   0.967E+00 -.105E-12 0.325E-04   -.134E+01 0.231E-13 -.676E-14   0.370E+00 0.000E+00 0.000E+00   -.201E-02 0.147E-13 0.286E-13
   0.987E+00 -.286E-12 0.204E-04   -.118E+01 0.142E-13 0.522E-15   0.196E+00 0.000E+00 0.000E+00   -.696E-03 0.237E-13 -.750E-14
   -.442E+02 -.599E-14 -.329E-05   0.515E+02 0.178E-14 -.292E-13   -.735E+01 0.000E+00 0.000E+00   0.159E-02 0.527E-14 0.122E-13
   0.400E+00 -.405E-14 -.312E-04   -.187E-01 -.142E-13 0.171E-13   -.374E+00 0.000E+00 0.000E+00   0.196E-02 0.296E-14 -.166E-13
   0.400E+00 -.162E-11 -.291E-04   -.187E-01 0.266E-14 0.680E-14   -.374E+00 0.000E+00 0.000E+00   0.196E-02 -.949E-14 0.179E-13
   -.875E+00 0.249E-11 -.200E-04   0.107E+01 0.711E-14 -.118E-13   -.201E+00 0.000E+00 0.000E+00   0.588E-03 -.681E-14 -.160E-13
   0.638E+01 0.404E+02 0.404E+02   -.621E+01 -.402E+02 -.402E+02   -.165E+00 -.197E+00 -.197E+00   -.118E-02 -.635E-03 -.635E-03
   0.638E+01 0.404E+02 -.404E+02   -.621E+01 -.402E+02 0.402E+02   -.165E+00 -.197E+00 0.197E+00   -.118E-02 -.635E-03 0.635E-03
   0.638E+01 -.404E+02 0.404E+02   -.621E+01 0.402E+02 -.402E+02   -.165E+00 0.197E+00 -.197E+00   -.118E-02 0.635E-03 -.635E-03
   0.638E+01 -.404E+02 -.404E+02   -.621E+01 0.402E+02 0.402E+02   -.165E+00 0.197E+00 0.197E+00   -.118E-02 0.635E-03 0.635E-03
   -.591E+01 0.148E+02 0.148E+02   0.577E+01 -.146E+02 -.146E+02   0.137E+00 -.281E+00 -.281E+00   0.133E-02 -.251E-03 -.251E-03
   -.591E+01 0.148E+02 -.148E+02   0.577E+01 -.146E+02 0.146E+02   0.137E+00 -.281E+00 0.281E+00   0.133E-02 -.251E-03 0.251E-03
   -.591E+01 -.148E+02 0.148E+02   0.577E+01 0.146E+02 -.146E+02   0.137E+00 0.281E+00 -.281E+00   0.133E-02 0.251E-03 -.251E-03
   -.591E+01 -.148E+02 -.148E+02   0.577E+01 0.146E+02 0.146E+02   0.137E+00 0.281E+00 0.281E+00   0.133E-02 0.251E-03 0.251E-03
   -.252E+02 -.300E-12 0.810E+02   0.248E+02 0.107E-13 -.876E+02   0.359E+00 0.000E+00 0.662E+01   -.819E-03 0.495E-15 0.413E-03
   -.252E+02 0.240E-12 -.810E+02   0.248E+02 -.355E-14 0.876E+02   0.359E+00 0.000E+00 -.662E+01   -.819E-03 0.240E-14 -.413E-03
   -.472E+01 0.538E-12 0.777E+01   0.458E+01 0.622E-14 -.805E+01   0.126E+00 0.000E+00 0.272E+00   -.766E-03 0.213E-13 -.127E-02
   -.472E+01 0.849E-14 -.777E+01   0.458E+01 0.187E-13 0.805E+01   0.126E+00 0.000E+00 -.272E+00   -.766E-03 0.228E-13 0.127E-02
   0.298E+02 -.506E-14 0.380E+02   -.291E+02 0.213E-13 -.380E+02   -.733E+00 0.000E+00 -.262E-01   0.602E-03 0.576E-14 -.687E-03
   0.298E+02 0.118E-13 -.380E+02   -.291E+02 0.711E-14 0.380E+02   -.733E+00 -.163E-18 0.262E-01   0.602E-03 0.455E-14 0.687E-03
   0.446E+01 0.111E-11 0.837E+01   -.436E+01 0.711E-14 -.841E+01   -.884E-01 0.000E+00 0.377E-01   0.758E-03 0.937E-14 0.962E-04
   0.446E+01 0.186E-11 -.837E+01   -.436E+01 0.000E+00 0.841E+01   -.884E-01 0.271E-19 -.377E-01   0.758E-03 0.420E-14 -.962E-04
   -.252E+02 0.810E+02 0.511E-04   0.248E+02 -.876E+02 0.150E-13   0.359E+00 0.662E+01 0.542E-19   -.819E-03 0.413E-03 0.269E-13
   -.472E+01 0.777E+01 0.441E-04   0.458E+01 -.805E+01 0.225E-13   0.126E+00 0.272E+00 0.000E+00   -.766E-03 -.127E-02 -.197E-13
   -.252E+02 -.810E+02 -.141E-04   0.248E+02 0.876E+02 0.583E-14   0.359E+00 -.662E+01 0.000E+00   -.819E-03 -.413E-03 0.135E-13
   -.472E+01 -.777E+01 -.189E-04   0.458E+01 0.805E+01 0.136E-13   0.126E+00 -.272E+00 0.000E+00   -.766E-03 0.127E-02 -.204E-13
   0.298E+02 0.380E+02 -.284E-04   -.291E+02 -.380E+02 -.215E-13   -.733E+00 -.262E-01 0.217E-18   0.602E-03 -.687E-03 0.367E-13
   0.446E+01 0.837E+01 -.717E-05   -.436E+01 -.841E+01 0.963E-16   -.884E-01 0.377E-01 0.000E+00   0.758E-03 0.962E-04 0.112E-13
   0.298E+02 -.380E+02 -.688E-05   -.291E+02 0.380E+02 -.771E-14   -.733E+00 0.262E-01 0.000E+00   0.602E-03 0.687E-03 0.383E-13
   0.446E+01 -.837E+01 -.188E-04   -.436E+01 0.841E+01 0.689E-16   -.884E-01 -.377E-01 -.271E-19   0.758E-03 -.962E-04 -.498E-14
 -----------------------------------------------------------------------------------------------
   0.122E+02 -.642E-11 0.919E-05   -.213E-13 0.480E-13 -.218E-13   -.123E+02 0.444E-15 0.888E-15   0.112E-02 0.178E-12 0.105E-12
 
 
 POSITION                                       TOTAL-FORCE (eV/Angst)
 -----------------------------------------------------------------------------------
      8.39897      0.00000      4.20973        -0.016635      0.000000      0.000000
      8.39897      4.20973      0.00000        -0.016635      0.000000      0.000000
      8.41241      4.20973      4.20973        -0.012287     -0.000000      0.000000
      4.25839      0.00000      0.00000        -0.034702     -0.000000      0.000000
      4.22726      0.00000      4.20973         0.003275      0.000000      0.000000
      4.22726      4.20973      0.00000         0.003275     -0.000000      0.000000
      4.21640      4.20973      4.20973         0.012216      0.000000      0.000000
      0.00043      2.04913      2.04913         0.005178      0.001064      0.001064
      0.00043      2.04913      6.37033         0.005178      0.001064     -0.001064
      0.00043      6.37033      2.04913         0.005178     -0.001064      0.001064
      0.00043      6.37033      6.37033         0.005178     -0.001064     -0.001064
      4.21303      2.09268      2.09268         0.000111      0.001730      0.001730
      4.21303      2.09268      6.32678         0.000111      0.001730     -0.001730
      4.21303      6.32678      2.09268         0.000111     -0.001730      0.001730
      4.21303      6.32678      6.32678         0.000111     -0.001730     -0.001730
      2.05487      0.00000      2.17301        -0.002994      0.000000      0.002913
      2.05487      0.00000      6.24645        -0.002994     -0.000000     -0.002913
      2.08991      4.20973      2.10754         0.007667      0.000000      0.004496
      2.08991      4.20973      6.31192         0.007667     -0.000000     -0.004496
      6.38749      0.00000      2.04492         0.001392      0.000000     -0.008567
      6.38749      0.00000      6.37454         0.001392      0.000000      0.008567
      6.32979      4.20973      2.09526        -0.001740     -0.000000      0.000945
      6.32979      4.20973      6.32419        -0.001740      0.000000     -0.000945
      2.05487      2.17301      0.00000        -0.002994      0.002913     -0.000000
      2.08991      2.10754      4.20973         0.007667      0.004496      0.000000
      2.05487      6.24645      0.00000        -0.002994     -0.002913     -0.000000
      2.08991      6.31192      4.20973         0.007667     -0.004496      0.000000
      6.38749      2.04492      0.00000         0.001392     -0.008567     -0.000000
      6.32979      2.09526      4.20973        -0.001740      0.000945      0.000000
      6.38749      6.37454      0.00000         0.001392      0.008567      0.000000
      6.32979      6.32419      4.20973        -0.001740     -0.000945      0.000000
      2.13512      0.00000      4.20973        -0.002719      0.000000      0.000000
      2.13512      4.20973      0.00000        -0.002719     -0.000000     -0.000000
      2.11577      4.20973      4.20973         0.002830     -0.000000      0.000000
      6.21132      0.00000      0.00000        -0.027168     -0.000000      0.000000
      6.28853      0.00000      4.20973         0.009018     -0.000000     -0.000000
      6.28853      4.20973      0.00000         0.009018      0.000000      0.000000
      6.30392      4.20973      4.20973         0.000159      0.000000      0.000000
      2.10837      2.08912      2.08912         0.004349      0.013079      0.013079
      2.10837      2.08912      6.33034         0.004349      0.013079     -0.013079
      2.10837      6.33034      2.08912         0.004349     -0.013079      0.013079
      2.10837      6.33034      6.33034         0.004349     -0.013079     -0.013079
      6.31099      2.10178      2.10178        -0.000252     -0.003007     -0.003007
      6.31099      2.10178      6.31767        -0.000252     -0.003007      0.003007
      6.31099      6.31767      2.10178        -0.000252      0.003007     -0.003007
      6.31099      6.31767      6.31767        -0.000252      0.003007      0.003007
      0.02176      0.00000      2.22505         0.003717     -0.000000     -0.009513
      0.02176      0.00000      6.19441         0.003717      0.000000      0.009513
      0.00655      4.20973      2.12401        -0.006924      0.000000     -0.005743
      0.00655      4.20973      6.29544        -0.006924      0.000000      0.005743
      4.17442      0.00000      2.09927        -0.003503      0.000000     -0.002906
      4.17442      0.00000      6.32018        -0.003503      0.000000      0.002906
      4.20300      4.20973      2.10777         0.011268      0.000000      0.001934
      4.20300      4.20973      6.31169         0.011268      0.000000     -0.001934
      0.02176      2.22505      0.00000         0.003717     -0.009513      0.000000
      0.00655      2.12401      4.20973        -0.006924     -0.005743     -0.000000
      0.02176      6.19441      0.00000         0.003717      0.009513      0.000000
      0.00655      6.29544      4.20973        -0.006924      0.005743     -0.000000
      4.17442      2.09927      0.00000        -0.003503     -0.002906     -0.000000
      4.20300      2.10777      4.20973         0.011268      0.001934     -0.000000
      4.17442      6.32018      0.00000        -0.003503      0.002906     -0.000000
      4.20300      6.31169      4.20973         0.011268     -0.001934     -0.000000
 -----------------------------------------------------------------------------------
    total drift:                               -0.022674     -0.000000      0.000009


--------------------------------------------------------------------------------------------------------



  FREE ENERGIE OF THE ION-ELECTRON SYSTEM (eV)
  ---------------------------------------------------
  free  energy   TOTEN  =      -379.09613462 eV

  energy  without entropy=     -379.09613462  energy(sigma->0) =     -379.09613462
 


--------------------------------------------------------------------------------------------------------


    POTLOK:  cpu time    0.5640: real time    0.5645


--------------------------------------------------------------------------------------------------------




--------------------------------------------------------------------------------------------------------


  
 reached required accuracy - stopping structural energy minimisation
 writing wavefunctions
     LOOP+:  cpu time    4.6760: real time    5.0750
    4ORBIT:  cpu time    0.0000: real time    0.0000
 


 total charge     
 
# of ion       s       p       d       tot
------------------------------------------
    1        0.163   0.202   0.092   0.457
    2        0.163   0.202   0.092   0.457
    3        0.153   0.186   0.083   0.422
    4        0.166   0.193   0.083   0.442
    5        0.152   0.185   0.082   0.420
    6        0.152   0.185   0.082   0.420
    7        0.152   0.185   0.082   0.419
    8        0.151   0.182   0.080   0.413
    9        0.151   0.182   0.080   0.413
   10        0.151   0.182   0.080   0.413
   11        0.151   0.182   0.080   0.413
   12        0.151   0.182   0.081   0.414
   13        0.151   0.182   0.081   0.414
   14        0.151   0.182   0.081   0.414
   15        0.151   0.182   0.081   0.414
   16        0.159   0.184   0.078   0.421
   17        0.159   0.184   0.078   0.421
   18        0.151   0.182   0.080   0.412
   19        0.151   0.182   0.080   0.412
   20        0.150   0.180   0.079   0.409
   21        0.150   0.180   0.079   0.409
   22        0.150   0.181   0.080   0.411
   23        0.150   0.181   0.080   0.411
   24        0.159   0.184   0.078   0.421
   25        0.151   0.182   0.080   0.412
   26        0.159   0.184   0.078   0.421
   27        0.151   0.182   0.080   0.412
   28        0.150   0.180   0.079   0.409
   29        0.150   0.181   0.080   0.411
   30        0.150   0.180   0.079   0.409
   31        0.150   0.181   0.080   0.411
   32        1.564   3.574   0.000   5.138
   33        1.564   3.574   0.000   5.138
   34        1.564   3.559   0.000   5.123
   35        1.565   3.572   0.000   5.137
   36        1.564   3.553   0.000   5.117
   37        1.564   3.553   0.000   5.117
   38        1.563   3.558   0.000   5.121
   39        1.565   3.556   0.000   5.121
   40        1.566   3.553   0.000   5.118
   41        1.566   3.553   0.000   5.118
   42        1.565   3.556   0.000   5.121
   43        1.564   3.559   0.000   5.123
   44        1.564   3.559   0.000   5.122
   45        1.564   3.559   0.000   5.122
   46        1.564   3.559   0.000   5.123
   47        1.565   3.563   0.000   5.128
   48        1.565   3.566   0.000   5.131
   49        1.564   3.552   0.000   5.116
   50        1.564   3.552   0.000   5.116
   51        1.565   3.547   0.000   5.112
   52        1.566   3.543   0.000   5.109
   53        1.563   3.554   0.000   5.118
   54        1.563   3.554   0.000   5.118
   55        1.565   3.563   0.000   5.128
   56        1.564   3.552   0.000   5.116
   57        1.565   3.566   0.000   5.131
   58        1.564   3.552   0.000   5.116
   59        1.565   3.547   0.000   5.112
   60        1.563   3.554   0.000   5.118
   61        1.566   3.543   0.000   5.109
   62        1.563   3.554   0.000   5.118
--------------------------------------------------
tot         53.243 115.959   2.506 171.708
 


 magnetization (x)
 
# of ion       s       p       d       tot
------------------------------------------
    1        0.000   0.000   0.000   0.001
    2        0.000   0.000   0.000   0.001
    3        0.000  -0.000  -0.000   0.000
    4        0.009   0.013   0.004   0.026
    5        0.000   0.000   0.000   0.001
    6        0.000   0.000   0.000   0.001
    7        0.000  -0.000  -0.000   0.000
    8       -0.000  -0.000  -0.000  -0.000
    9       -0.000  -0.000  -0.000  -0.000
   10       -0.000  -0.000  -0.000  -0.000
   11       -0.000  -0.000  -0.000  -0.000
   12       -0.000  -0.000  -0.000  -0.000
   13       -0.000  -0.000  -0.000  -0.000
   14       -0.000  -0.000  -0.000  -0.000
   15       -0.000  -0.000  -0.000  -0.000
   16        0.007   0.009   0.003   0.019
   17        0.006   0.009   0.003   0.019
   18        0.000   0.000   0.000   0.001
   19        0.000   0.000   0.000   0.001
   20        0.000   0.000   0.000   0.001
   21        0.000   0.000   0.000   0.001
   22        0.000  -0.000  -0.000   0.000
   23        0.000  -0.000  -0.000   0.000
   24        0.007   0.009   0.003   0.019
   25        0.000   0.000   0.000   0.001
   26        0.006   0.009   0.003   0.019
   27        0.000   0.000   0.000   0.001
   28        0.000   0.000   0.000   0.001
   29        0.000  -0.000  -0.000   0.000
   30        0.000   0.000   0.000   0.001
   31        0.000  -0.000  -0.000   0.000
   32        0.000   0.000   0.000   0.000
   33        0.000   0.000   0.000   0.000
   34        0.000   0.002   0.000   0.003
   35       -0.000   0.000   0.000   0.000
   36        0.000   0.003   0.000   0.003
   37        0.000   0.003   0.000   0.003
   38        0.000   0.000   0.000   0.000
   39        0.002   0.014   0.000   0.015
   40        0.002   0.011   0.000   0.013
   41        0.002   0.011   0.000   0.013
   42        0.002   0.014   0.000   0.015
   43        0.000   0.001   0.000   0.001
   44        0.000   0.001   0.000   0.001
   45        0.000   0.001   0.000   0.001
   46        0.000   0.000   0.000   0.001
   47        0.001   0.006   0.000   0.007
   48        0.001   0.009   0.000   0.010
   49        0.000   0.001   0.000   0.001
   50        0.000   0.001   0.000   0.001
   51        0.002   0.019   0.000   0.021
   52        0.002   0.016   0.000   0.019
   53        0.000   0.001   0.000   0.001
   54        0.000   0.001   0.000   0.001
   55        0.001   0.006   0.000   0.007
   56        0.000   0.001   0.000   0.001
   57        0.001   0.009   0.000   0.010
   58        0.000   0.001   0.000   0.001
   59        0.002   0.019   0.000   0.021
   60        0.000   0.001   0.000   0.001
   61        0.002   0.016   0.000   0.019
   62        0.000   0.001   0.000   0.001
--------------------------------------------------
tot          0.061   0.219   0.019   0.298
 

 total amount of memory used by VASP MPI-rank0    50261. kBytes
=======================================================================

   base      :      30000. kBytes
   nonlr-proj:       8329. kBytes
   fftplans  :       1007. kBytes
   grid      :       7709. kBytes
   one-center:       1005. kBytes
   wavefun   :       2211. kBytes
 
  
  
 General timing and accounting informations for this job:
 ========================================================
  
                  Total CPU time used (sec):        6.396
                            User time (sec):        6.048
                          System time (sec):        0.348
                         Elapsed time (sec):        7.239
  
                   Maximum memory used (kb):      115508.
                   Average memory used (kb):           0.
  
                          Minor page faults:        25166
                          Major page faults:           10
                 Voluntary context switches:         2441
