  63  63   0   0
  0.9726653E+01  0.8493786E-09  0.8493786E-09  0.8493786E-09  0.5000000E-15
  1.000000000000000E-004
  CAR 
 unknown system                          
     14.59788823    -15.39797288  301      3.11197308      1.00000000
    -15.398  0.0000E+00  0.0000E+00
    -15.298  0.0000E+00  0.0000E+00
    -15.198  0.0000E+00  0.0000E+00
    -15.098  0.0000E+00  0.0000E+00
    -14.998  0.0000E+00  0.0000E+00
    -14.898  0.0000E+00  0.0000E+00
    -14.798  0.0000E+00  0.0000E+00
    -14.698  0.0000E+00  0.0000E+00
    -14.598  0.0000E+00  0.0000E+00
    -14.498  0.0000E+00  0.0000E+00
    -14.398  0.0000E+00  0.0000E+00
    -14.298  0.4469E-13  0.4469E-14
    -14.198  0.1849E-05  0.1849E-06
    -14.098  0.3596E-01  0.3596E-02
    -13.998  0.8123E+00  0.8481E-01
    -13.898  0.1519E+00  0.9999E-01
    -13.798  0.9530E-01  0.1095E+00
    -13.698  0.1661E+01  0.2756E+00
    -13.598  0.7370E+00  0.3493E+00
    -13.498  0.5127E+00  0.4006E+00
    -13.398  0.1405E+01  0.5410E+00
    -13.298  0.1644E+01  0.7055E+00
    -13.198  0.2000E+01  0.9054E+00
    -13.098  0.2044E+01  0.1110E+01
    -12.998  0.2963E+01  0.1406E+01
    -12.898  0.3912E+01  0.1797E+01
    -12.798  0.4676E+01  0.2265E+01
    -12.698  0.3148E+01  0.2579E+01
    -12.598  0.4890E+01  0.3068E+01
    -12.498  0.3158E+00  0.3100E+01
    -12.398  0.4296E-04  0.3100E+01
    -12.298  0.4156E-11  0.3100E+01
    -12.198  0.0000E+00  0.3100E+01
    -12.098  0.0000E+00  0.3100E+01
    -11.998  0.0000E+00  0.3100E+01
    -11.898  0.0000E+00  0.3100E+01
    -11.798  0.0000E+00  0.3100E+01
    -11.698  0.0000E+00  0.3100E+01
    -11.598  0.0000E+00  0.3100E+01
    -11.499  0.0000E+00  0.3100E+01
    -11.399  0.0000E+00  0.3100E+01
    -11.299  0.0000E+00  0.3100E+01
    -11.199  0.0000E+00  0.3100E+01
    -11.099  0.0000E+00  0.3100E+01
    -10.999  0.0000E+00  0.3100E+01
    -10.899  0.0000E+00  0.3100E+01
    -10.799  0.0000E+00  0.3100E+01
    -10.699  0.0000E+00  0.3100E+01
    -10.599  0.0000E+00  0.3100E+01
    -10.499  0.0000E+00  0.3100E+01
    -10.399  0.0000E+00  0.3100E+01
    -10.299  0.0000E+00  0.3100E+01
    -10.199  0.0000E+00  0.3100E+01
    -10.099  0.0000E+00  0.3100E+01
     -9.999  0.0000E+00  0.3100E+01
     -9.899  0.0000E+00  0.3100E+01
     -9.799  0.0000E+00  0.3100E+01
     -9.699  0.0000E+00  0.3100E+01
     -9.599  0.0000E+00  0.3100E+01
     -9.499  0.0000E+00  0.3100E+01
     -9.399  0.0000E+00  0.3100E+01
     -9.299  0.0000E+00  0.3100E+01
     -9.199  0.0000E+00  0.3100E+01
     -9.099  0.0000E+00  0.3100E+01
     -8.999  0.0000E+00  0.3100E+01
     -8.899  0.0000E+00  0.3100E+01
     -8.799  0.0000E+00  0.3100E+01
     -8.699  0.0000E+00  0.3100E+01
     -8.599  0.0000E+00  0.3100E+01
     -8.499  0.0000E+00  0.3100E+01
     -8.399  0.0000E+00  0.3100E+01
     -8.299  0.0000E+00  0.3100E+01
     -8.199  0.0000E+00  0.3100E+01
     -8.099  0.0000E+00  0.3100E+01
     -7.999  0.0000E+00  0.3100E+01
     -7.899  0.0000E+00  0.3100E+01
     -7.799  0.0000E+00  0.3100E+01
     -7.699  0.0000E+00  0.3100E+01
     -7.599  0.0000E+00  0.3100E+01
     -7.499  0.0000E+00  0.3100E+01
     -7.399  0.0000E+00  0.3100E+01
     -7.299  0.0000E+00  0.3100E+01
     -7.199  0.0000E+00  0.3100E+01
     -7.099  0.0000E+00  0.3100E+01
     -6.999  0.0000E+00  0.3100E+01
     -6.899  0.0000E+00  0.3100E+01
     -6.799  0.0000E+00  0.3100E+01
     -6.699  0.0000E+00  0.3100E+01
     -6.599  0.0000E+00  0.3100E+01
     -6.499  0.0000E+00  0.3100E+01
     -6.399  0.0000E+00  0.3100E+01
     -6.299  0.0000E+00  0.3100E+01
     -6.199  0.0000E+00  0.3100E+01
     -6.099  0.0000E+00  0.3100E+01
     -5.999  0.0000E+00  0.3100E+01
     -5.899  0.0000E+00  0.3100E+01
     -5.799  0.0000E+00  0.3100E+01
     -5.699  0.0000E+00  0.3100E+01
     -5.599  0.0000E+00  0.3100E+01
     -5.499  0.0000E+00  0.3100E+01
     -5.399  0.0000E+00  0.3100E+01
     -5.299  0.0000E+00  0.3100E+01
     -5.199  0.0000E+00  0.3100E+01
     -5.099  0.0000E+00  0.3100E+01
     -4.999  0.0000E+00  0.3100E+01
     -4.899  0.0000E+00  0.3100E+01
     -4.799  0.0000E+00  0.3100E+01
     -4.699  0.0000E+00  0.3100E+01
     -4.599  0.0000E+00  0.3100E+01
     -4.499  0.0000E+00  0.3100E+01
     -4.399  0.0000E+00  0.3100E+01
     -4.300  0.0000E+00  0.3100E+01
     -4.200  0.0000E+00  0.3100E+01
     -4.100  0.0000E+00  0.3100E+01
     -4.000  0.0000E+00  0.3100E+01
     -3.900  0.0000E+00  0.3100E+01
     -3.800  0.0000E+00  0.3100E+01
     -3.700  0.0000E+00  0.3100E+01
     -3.600  0.0000E+00  0.3100E+01
     -3.500  0.0000E+00  0.3100E+01
     -3.400  0.0000E+00  0.3100E+01
     -3.300  0.0000E+00  0.3100E+01
     -3.200  0.0000E+00  0.3100E+01
     -3.100  0.0000E+00  0.3100E+01
     -3.000  0.0000E+00  0.3100E+01
     -2.900  0.0000E+00  0.3100E+01
     -2.800  0.0000E+00  0.3100E+01
     -2.700  0.0000E+00  0.3100E+01
     -2.600  0.0000E+00  0.3100E+01
     -2.500  0.0000E+00  0.3100E+01
     -2.400  0.0000E+00  0.3100E+01
     -2.300  0.0000E+00  0.3100E+01
     -2.200  0.0000E+00  0.3100E+01
     -2.100  0.0000E+00  0.3100E+01
     -2.000  0.0000E+00  0.3100E+01
     -1.900  0.0000E+00  0.3100E+01
     -1.800  0.0000E+00  0.3100E+01
     -1.700  0.0000E+00  0.3100E+01
     -1.600  0.0000E+00  0.3100E+01
     -1.500  0.2188E-09  0.3100E+01
     -1.400  0.4463E-03  0.3100E+01
     -1.300  0.5783E+00  0.3158E+01
     -1.200  0.2320E+01  0.3390E+01
     -1.100  0.2208E+00  0.3412E+01
     -1.000  0.9721E+00  0.3509E+01
     -0.900  0.9354E+00  0.3603E+01
     -0.800  0.1924E+01  0.3795E+01
     -0.700  0.3455E+01  0.4141E+01
     -0.600  0.2881E+01  0.4429E+01
     -0.500  0.2922E+01  0.4721E+01
     -0.400  0.3640E+01  0.5085E+01
     -0.300  0.2697E+01  0.5354E+01
     -0.200  0.2382E+01  0.5592E+01
     -0.100  0.3893E+00  0.5631E+01
     -0.000  0.2499E+01  0.5881E+01
      0.100  0.1879E+00  0.5900E+01
      0.200  0.2363E-04  0.5900E+01
      0.300  0.1241E-09  0.5900E+01
      0.400  0.3277E-03  0.5900E+01
      0.500  0.6565E+00  0.5966E+01
      0.600  0.5580E+01  0.6524E+01
      0.700  0.3053E+01  0.6829E+01
      0.800  0.7213E+00  0.6901E+01
      0.900  0.1210E+01  0.7022E+01
      1.000  0.7787E+00  0.7100E+01
      1.100  0.3174E-01  0.7103E+01
      1.200  0.9810E+00  0.7201E+01
      1.300  0.4710E+01  0.7672E+01
      1.400  0.2261E+01  0.7898E+01
      1.500  0.1059E+01  0.8004E+01
      1.600  0.2260E+01  0.8230E+01
      1.700  0.5082E+01  0.8738E+01
      1.800  0.3413E+01  0.9079E+01
      1.900  0.2828E+01  0.9362E+01
      2.000  0.5377E+01  0.9900E+01
      2.100  0.5342E+01  0.1043E+02
      2.200  0.4202E+01  0.1085E+02
      2.300  0.2370E+01  0.1109E+02
      2.400  0.2346E+01  0.1133E+02
      2.500  0.5393E+01  0.1186E+02
      2.600  0.3111E+01  0.1218E+02
      2.700  0.2446E+00  0.1220E+02
      2.800  0.8092E+00  0.1228E+02
      2.900  0.1179E+01  0.1240E+02
      2.999  0.9620E-02  0.1240E+02
      3.099  0.6053E-07  0.1240E+02
      3.199  0.0000E+00  0.1240E+02
      3.299  0.0000E+00  0.1240E+02
      3.399  0.0000E+00  0.1240E+02
      3.499  0.0000E+00  0.1240E+02
      3.599  0.0000E+00  0.1240E+02
      3.699  0.0000E+00  0.1240E+02
      3.799  0.0000E+00  0.1240E+02
      3.899  0.0000E+00  0.1240E+02
      3.999  0.0000E+00  0.1240E+02
      4.099  0.0000E+00  0.1240E+02
      4.199  0.0000E+00  0.1240E+02
      4.299  0.0000E+00  0.1240E+02
      4.399  0.0000E+00  0.1240E+02
      4.499  0.0000E+00  0.1240E+02
      4.599  0.0000E+00  0.1240E+02
      4.699  0.0000E+00  0.1240E+02
      4.799  0.0000E+00  0.1240E+02
      4.899  0.0000E+00  0.1240E+02
      4.999  0.0000E+00  0.1240E+02
      5.099  0.0000E+00  0.1240E+02
      5.199  0.0000E+00  0.1240E+02
      5.299  0.1120E-09  0.1240E+02
      5.399  0.2192E-03  0.1240E+02
      5.499  0.2456E+00  0.1242E+02
      5.599  0.7382E+00  0.1250E+02
      5.699  0.1617E-01  0.1250E+02
      5.799  0.3379E-06  0.1250E+02
      5.899  0.3109E-14  0.1250E+02
      5.999  0.0000E+00  0.1250E+02
      6.099  0.0000E+00  0.1250E+02
      6.199  0.0000E+00  0.1250E+02
      6.299  0.0000E+00  0.1250E+02
      6.399  0.0000E+00  0.1250E+02
      6.499  0.0000E+00  0.1250E+02
      6.599  0.0000E+00  0.1250E+02
      6.699  0.0000E+00  0.1250E+02
      6.799  0.0000E+00  0.1250E+02
      6.899  0.0000E+00  0.1250E+02
      6.999  0.0000E+00  0.1250E+02
      7.099  0.0000E+00  0.1250E+02
      7.199  0.0000E+00  0.1250E+02
      7.299  0.0000E+00  0.1250E+02
      7.399  0.0000E+00  0.1250E+02
      7.499  0.0000E+00  0.1250E+02
      7.599  0.0000E+00  0.1250E+02
      7.699  0.0000E+00  0.1250E+02
      7.799  0.0000E+00  0.1250E+02
      7.899  0.0000E+00  0.1250E+02
      7.999  0.0000E+00  0.1250E+02
      8.099  0.0000E+00  0.1250E+02
      8.199  0.3617E-12  0.1250E+02
      8.299  0.6904E-05  0.1250E+02
      8.399  0.6440E-01  0.1251E+02
      8.499  0.8405E+00  0.1259E+02
      8.599  0.9524E-01  0.1260E+02
      8.699  0.1758E-04  0.1260E+02
      8.799  0.1640E-11  0.1260E+02
      8.899  0.0000E+00  0.1260E+02
      8.999  0.0000E+00  0.1260E+02
      9.099  0.0000E+00  0.1260E+02
      9.199  0.4578E-10  0.1260E+02
      9.299  0.1726E-03  0.1260E+02
      9.399  0.3533E+00  0.1264E+02
      9.499  0.1589E+01  0.1279E+02
      9.599  0.5743E-01  0.1280E+02
      9.699  0.2267E-05  0.1280E+02
      9.799  0.8066E-05  0.1280E+02
      9.899  0.6882E-01  0.1281E+02
      9.999  0.8417E+00  0.1289E+02
     10.099  0.9037E-01  0.1290E+02
     10.198  0.3715E+00  0.1294E+02
     10.298  0.6217E+00  0.1300E+02
     10.398  0.5957E-01  0.1301E+02
     10.498  0.1577E+01  0.1316E+02
     10.598  0.6097E+00  0.1322E+02
     10.698  0.7434E+00  0.1330E+02
     10.798  0.1700E-01  0.1330E+02
     10.898  0.2331E+00  0.1332E+02
     10.998  0.1665E+01  0.1349E+02
     11.098  0.1019E+00  0.1350E+02
     11.198  0.8051E-05  0.1350E+02
     11.298  0.2163E-03  0.1350E+02
     11.398  0.3835E+00  0.1354E+02
     11.498  0.1683E+01  0.1371E+02
     11.598  0.8827E+00  0.1379E+02
     11.698  0.5318E-01  0.1380E+02
     11.798  0.5206E+00  0.1385E+02
     11.898  0.1766E+01  0.1403E+02
     11.998  0.7102E+00  0.1410E+02
     12.098  0.1075E+00  0.1411E+02
     12.198  0.2127E+01  0.1432E+02
     12.298  0.1755E+01  0.1450E+02
     12.398  0.6464E+00  0.1456E+02
     12.498  0.1507E+01  0.1471E+02
     12.598  0.2043E+01  0.1492E+02
     12.698  0.1076E+01  0.1503E+02
     12.798  0.7263E+00  0.1510E+02
     12.898  0.4466E+00  0.1514E+02
     12.998  0.1526E+01  0.1530E+02
     13.098  0.4990E-01  0.1530E+02
     13.198  0.1143E+01  0.1542E+02
     13.298  0.1803E+01  0.1560E+02
     13.398  0.4488E-01  0.1560E+02
     13.498  0.1939E-05  0.1560E+02
     13.598  0.4508E-13  0.1560E+02
     13.698  0.0000E+00  0.1560E+02
     13.798  0.0000E+00  0.1560E+02
     13.898  0.0000E+00  0.1560E+02
     13.998  0.0000E+00  0.1560E+02
     14.098  0.0000E+00  0.1560E+02
     14.198  0.0000E+00  0.1560E+02
     14.298  0.0000E+00  0.1560E+02
     14.398  0.0000E+00  0.1560E+02
     14.498  0.0000E+00  0.1560E+02
     14.598  0.0000E+00  0.1560E+02
