       N       E                     dE             d eps       ncg     rms          rms(c)
DAV:   1     0.124642401067E+04    0.12464E+04   -0.10625E+05   320   0.117E+03
DAV:   2    -0.321997513523E+03   -0.15684E+04   -0.15351E+04   384   0.282E+02
DAV:   3    -0.428112505700E+03   -0.10611E+03   -0.10566E+03   360   0.799E+01
DAV:   4    -0.429293154286E+03   -0.11806E+01   -0.11776E+01   368   0.901E+00
DAV:   5    -0.429310987203E+03   -0.17833E-01   -0.17824E-01   360   0.102E+00    0.393E+01
DAV:   6    -0.381986563050E+03    0.47324E+02   -0.23052E+02   352   0.340E+01    0.129E+01
DAV:   7    -0.381374601007E+03    0.61196E+00   -0.32834E+00   352   0.508E+00    0.792E+00
DAV:   8    -0.380941876267E+03    0.43272E+00   -0.11412E+00   352   0.438E+00    0.105E+00
DAV:   9    -0.380936089755E+03    0.57865E-02   -0.16540E-01   360   0.108E+00    0.547E-01
DAV:  10    -0.380936542466E+03   -0.45271E-03   -0.21122E-02   368   0.492E-01    0.235E-01
DAV:  11    -0.380938627334E+03   -0.20849E-02   -0.50899E-03   336   0.197E-01    0.171E-01
DAV:  12    -0.380938368554E+03    0.25878E-03   -0.87989E-04   480   0.144E-01    0.954E-02
DAV:  13    -0.380938296253E+03    0.72301E-04   -0.12730E-03   368   0.121E-01    0.261E-02
DAV:  14    -0.380938300721E+03   -0.44680E-05   -0.16015E-04   352   0.390E-02    0.118E-02
DAV:  15    -0.380938303867E+03   -0.31461E-05   -0.25908E-05   352   0.174E-02    0.122E-02
DAV:  16    -0.380938301381E+03    0.24861E-05   -0.73824E-06   376   0.106E-02    0.808E-03
DAV:  17    -0.380938301146E+03    0.23498E-06   -0.44110E-06   320   0.590E-03
   1 F= -.38093830E+03 E0= -.38093830E+03  d E =-.380938E+03
