unknown system                          
           1
     8.493786    0.000000    0.000000
     0.000000    8.493786    0.000000
     0.000000    0.000000    8.493786
   Mg   O 
  32  31
Direct configuration=     1
   0.99979458  0.99979458  0.99979458
   0.99979458  0.99979458  0.50020542
   0.99979458  0.50020542  0.99979458
   0.99979458  0.50020542  0.50020542
   0.50020542  0.99979458  0.99979458
   0.50020542  0.99979458  0.50020542
   0.50020542  0.50020542  0.99979458
   0.50020542  0.50020542  0.50020542
   0.98001156  0.25000000  0.25000000
   0.99769274  0.25000000  0.75000000
   0.99769274  0.75000000  0.25000000
   0.99906100  0.75000000  0.75000000
   0.51998844  0.25000000  0.25000000
   0.50230726  0.25000000  0.75000000
   0.50230726  0.75000000  0.25000000
   0.50093900  0.75000000  0.75000000
   0.25000000  0.98001156  0.25000000
   0.25000000  0.99769274  0.75000000
   0.25000000  0.51998844  0.25000000
   0.25000000  0.50230726  0.75000000
   0.75000000  0.99769274  0.25000000
   0.75000000  0.99906100  0.75000000
   0.75000000  0.50230726  0.25000000
   0.75000000  0.50093900  0.75000000
   0.25000000  0.25000000  0.98001156
   0.25000000  0.25000000  0.51998844
   0.25000000  0.75000000  0.99769274
   0.25000000  0.75000000  0.50230726
   0.75000000  0.25000000  0.99769274
   0.75000000  0.25000000  0.50230726
   0.75000000  0.75000000  0.99906100
   0.75000000  0.75000000  0.50093900
   0.25000000  0.25000000  0.75000000
   0.25000000  0.75000000  0.25000000
   0.25000000  0.75000000  0.75000000
   0.75000000  0.25000000  0.25000000
   0.75000000  0.25000000  0.75000000
   0.75000000  0.75000000  0.25000000
   0.75000000  0.75000000  0.75000000
   0.25000000  0.00597677  0.00597677
   0.25000000  0.00597677  0.49402323
   0.25000000  0.49402323  0.00597677
   0.25000000  0.49402323  0.49402323
   0.75000000  0.00143877  0.00143877
   0.75000000  0.00143877  0.49856123
   0.75000000  0.49856123  0.00143877
   0.75000000  0.49856123  0.49856123
   0.00597677  0.25000000  0.00597677
   0.00597677  0.25000000  0.49402323
   0.00143877  0.75000000  0.00143877
   0.00143877  0.75000000  0.49856123
   0.49402323  0.25000000  0.00597677
   0.49402323  0.25000000  0.49402323
   0.49856123  0.75000000  0.00143877
   0.49856123  0.75000000  0.49856123
   0.00597677  0.00597677  0.25000000
   0.00143877  0.00143877  0.75000000
   0.00597677  0.49402323  0.25000000
   0.00143877  0.49856123  0.75000000
   0.49402323  0.00597677  0.25000000
   0.49856123  0.00143877  0.75000000
   0.49402323  0.49402323  0.25000000
   0.49856123  0.49856123  0.75000000
