 vasp.5.3.3 18Dez12 (build Mar 11 2013 19:36:37) gamma-only                     
  
 executed on             LinuxIFC date 2013.07.24  12:52:09
 running on   16 total cores
 distrk:  each k-point on   16 cores,    1 groups
 distr:  one band on NCORES_PER_BAND=   4 cores,    4 groups


--------------------------------------------------------------------------------------------------------


 INCAR:
 POTCAR:   PAW_PBE Zn 06Sep2000                   
 POTCAR:   PAW_PBE Sn 08Apr2002                   
 POTCAR:    PAW_PBE P 17Jan2003                   
 POTCAR:   PAW_PBE Zn 06Sep2000                   
   VRHFIN =Zn: d10 p2                                                           
   LEXCH  = PE                                                                  
   EATOM  =  1749.0928 eV,  128.5547 Ry                                         
                                                                                
   TITEL  = PAW_PBE Zn 06Sep2000                                                
   LULTRA =        F    use ultrasoft PP ?                                      
   IUNSCR =        1    unscreen: 0-lin 1-nonlin 2-no                           
   RPACOR =    2.000    partial core radius                                     
   POMASS =   65.390; ZVAL   =   12.000    mass and valenz                      
   RCORE  =    2.300    outmost cutoff radius                                   
   RWIGS  =    2.400; RWIGS  =    1.270    wigner-seitz radius (au A)           
   ENMAX  =  276.727; ENMIN  =  207.545 eV                                      
   RCLOC  =    1.828    cutoff for local pot                                    
   LCOR   =        T    correct aug charges                                     
   LPAW   =        T    paw PP                                                  
   EAUG   =  575.892                                                            
   DEXC   =    -.003                                                            
   RMAX   =    2.772    core radius for proj-oper                               
   RAUG   =    1.300    factor for augmentation sphere                          
   RDEP   =    2.324    radius for radial grids                                 
   QCUT   =   -4.510; QGAM   =    9.020    optimization parameters              
                                                                                
   Description                                                                  
     l     E      TYP  RCUT    TYP  RCUT                                        
     2   .000     23  2.300                                                     
     2   .000     23  2.300                                                     
     0   .000     23  2.300                                                     
     0   .000     23  2.300                                                     
     1  -.200     23  2.300                                                     
     1   .000     23  2.300                                                     
     3   .000      7   .000                                                     
  local pseudopotential read in
  partial core-charges read in
  atomic valenz-charges read in
  non local Contribution for L=           2  read in
    real space projection operators read in
  non local Contribution for L=           2  read in
    real space projection operators read in
  non local Contribution for L=           0  read in
    real space projection operators read in
  non local Contribution for L=           0  read in
    real space projection operators read in
  non local Contribution for L=           1  read in
    real space projection operators read in
  non local Contribution for L=           1  read in
    real space projection operators read in
    PAW grid and wavefunctions read in
 
   number of l-projection  operators is LMAX  =           6
   number of lm-projection operators is LMMAX =          18
 
 POTCAR:   PAW_PBE Sn 08Apr2002                   
   VRHFIN =Sn: s2p2                                                             
   LEXCH  = PE                                                                  
   EATOM  =    94.0860 eV,    6.9151 Ry                                         
                                                                                
   TITEL  = PAW_PBE Sn 08Apr2002                                                
   LULTRA =        F    use ultrasoft PP ?                                      
   IUNSCR =        1    unscreen: 0-lin 1-nonlin 2-no                           
   RPACOR =    2.000    partial core radius                                     
   POMASS =  118.710; ZVAL   =    4.000    mass and valenz                      
   RCORE  =    3.000    outmost cutoff radius                                   
   RWIGS  =    2.960; RWIGS  =    1.566    wigner-seitz radius (au A)           
   ENMAX  =  103.236; ENMIN  =   77.427 eV                                      
   ICORE  =        3    local potential                                         
   LCOR   =        T    correct aug charges                                     
   LPAW   =        T    paw PP                                                  
   EAUG   =  263.585                                                            
   DEXC   =    -.068                                                            
   RMAX   =    4.538    core radius for proj-oper                               
   RAUG   =    1.300    factor for augmentation sphere                          
   RDEP   =    3.022    radius for radial grids                                 
   QCUT   =   -2.755; QGAM   =    5.509    optimization parameters              
                                                                                
   Description                                                                  
     l     E      TYP  RCUT    TYP  RCUT                                        
     0   .000     23  3.000                                                     
     0  2.000     23  3.000                                                     
     1   .000     23  3.000                                                     
     1   .000     23  3.000                                                     
     2   .000     23  3.000                                                     
     3  -.200     23  3.000                                                     
  local pseudopotential read in
  partial core-charges read in
  atomic valenz-charges read in
  non local Contribution for L=           0  read in
    real space projection operators read in
  non local Contribution for L=           0  read in
    real space projection operators read in
  non local Contribution for L=           1  read in
    real space projection operators read in
  non local Contribution for L=           1  read in
    real space projection operators read in
  non local Contribution for L=           2  read in
    real space projection operators read in
    PAW grid and wavefunctions read in
 
   number of l-projection  operators is LMAX  =           5
   number of lm-projection operators is LMMAX =          13
 
 POTCAR:    PAW_PBE P 17Jan2003                   
   VRHFIN =P : s2p3                                                             
   LEXCH  = PE                                                                  
   EATOM  =   176.0430 eV,   12.9388 Ry                                         
                                                                                
   TITEL  = PAW_PBE P 17Jan2003                                                 
   LULTRA =        F    use ultrasoft PP ?                                      
   IUNSCR =        1    unscreen: 0-lin 1-nonlin 2-no                           
   RPACOR =    1.500    partial core radius                                     
   POMASS =   30.974; ZVAL   =    5.000    mass and valenz                      
   RCORE  =    1.900    outmost cutoff radius                                   
   RWIGS  =    2.330; RWIGS  =    1.233    wigner-seitz radius (au A)           
   ENMAX  =  270.000; ENMIN  =  191.280 eV                                      
   ICORE  =        2    local potential                                         
   LCOR   =        T    correct aug charges                                     
   LPAW   =        T    paw PP                                                  
   EAUG   =  342.924                                                            
   DEXC   =    -.002                                                            
   RMAX   =    2.887    core radius for proj-oper                               
   RAUG   =    1.300    factor for augmentation sphere                          
   RDEP   =    1.931    radius for radial grids                                 
   QCUT   =   -4.330; QGAM   =    8.659    optimization parameters              
                                                                                
   Description                                                                  
     l     E      TYP  RCUT    TYP  RCUT                                        
     0   .000     23  1.900                                                     
     0   .000     23  1.900                                                     
     1   .000     23  1.900                                                     
     1   .000     23  1.900                                                     
     2   .000     23  1.900                                                     
  local pseudopotential read in
  partial core-charges read in
  atomic valenz-charges read in
  non local Contribution for L=           0  read in
    real space projection operators read in
  non local Contribution for L=           0  read in
    real space projection operators read in
  non local Contribution for L=           1  read in
    real space projection operators read in
  non local Contribution for L=           1  read in
    real space projection operators read in
    PAW grid and wavefunctions read in
 
   number of l-projection  operators is LMAX  =           4
   number of lm-projection operators is LMMAX =           8
 
 Optimization of the real space projectors (new method)

 maximal supplied QI-value         = 16.25
 optimisation between [QCUT,QGAM] = [  8.78, 17.71] = [ 21.57, 87.87] Ry 
 Optimized for a Real-space Cutoff    1.55 Angstroem

   l    n(q)    QCUT    max X(q) W(low)/X(q) W(high)/X(q)  e(spline) 
   2      7     8.776     5.523    0.25E-04    0.61E-04    0.37E-07
   2      7     8.776     9.671    0.20E-03    0.41E-03    0.27E-06
   0      8     8.776    11.246    0.21E-04    0.15E-05    0.51E-08
   0      8     8.776    34.692    0.16E-03    0.15E-03    0.65E-07
   1      8     8.776     4.877    0.32E-04    0.71E-04    0.27E-07
   1      8     8.776     6.599    0.91E-04    0.23E-03    0.86E-07
 Optimization of the real space projectors (new method)

 maximal supplied QI-value         = 12.47
 optimisation between [QCUT,QGAM] = [  8.86, 17.71] = [ 21.96, 87.83] Ry 
 Optimized for a Real-space Cutoff    1.69 Angstroem

   l    n(q)    QCUT    max X(q) W(low)/X(q) W(high)/X(q)  e(spline) 
   0      9     8.855     8.835    0.76E-05    0.43E-05    0.34E-08
   0      9     8.855     9.462    0.12E-03    0.12E-03    0.57E-07
   1      8     8.855     6.773    0.11E-04    0.12E-04    0.14E-07
   1      8     8.855    30.919    0.19E-03    0.16E-04    0.13E-06
   2      8     8.855     7.156    0.89E-04    0.11E-03    0.30E-07
 Optimization of the real space projectors (new method)

 maximal supplied QI-value         = 19.84
 optimisation between [QCUT,QGAM] = [  8.73, 17.66] = [ 21.34, 87.33] Ry 
 Optimized for a Real-space Cutoff    1.50 Angstroem

   l    n(q)    QCUT    max X(q) W(low)/X(q) W(high)/X(q)  e(spline) 
   0      8     8.731     6.651    0.16E-04    0.15E-04    0.77E-08
   0      8     8.731    90.285    0.16E-03    0.90E-04    0.16E-06
   1      7     8.731     4.328    0.47E-04    0.36E-04    0.45E-07
   1      7     8.731    54.583    0.13E-03    0.39E-03    0.20E-06
 PAW_PBE Zn 06Sep2000                   :
 energy of atom  1       EATOM=-1749.0928
 kinetic energy error for atom=    0.0293 (will be added to EATOM!!)
 PAW_PBE Sn 08Apr2002                   :
 energy of atom  2       EATOM=  -94.0860
 kinetic energy error for atom=    0.0002 (will be added to EATOM!!)
  PAW_PBE P 17Jan2003                   :
 energy of atom  3       EATOM= -176.0430
 kinetic energy error for atom=    0.0040 (will be added to EATOM!!)
 
 
 POSCAR: CIF file-3x3x3                          
  positions in direct lattice
  velocities in cartesian coordinates
 exchange correlation table for  LEXCH =        8
   RHO(1)=    0.500       N(1)  =     2000
   RHO(2)=  100.500       N(2)  =     4000
 


--------------------------------------------------------------------------------------------------------


 ion  position               nearest neighbor table
   1  0.165  0.165  0.000- 162 2.39 207 2.39 108 2.42 153 2.42
   2  0.500  0.167  1.000- 208 2.41 154 2.41 109 2.41 163 2.41
   3  0.836  0.156  0.998- 209 2.34 164 2.44 155 2.44 110 2.46
   4  0.167  0.500  0.000- 165 2.41 111 2.41 156 2.41 210 2.41
   5  0.500  0.500  1.000- 211 2.40 112 2.40 157 2.40 166 2.40
   6  0.834  0.499  0.000- 212 2.40 113 2.41 158 2.41 167 2.41
   7  0.159  0.838  0.002- 168 2.34 213 2.44 114 2.44 159 2.46
   8  0.499  0.834  1.000- 169 2.40 160 2.41 115 2.41 214 2.41
   9  0.835  0.835  0.000- 116 2.39 161 2.39 170 2.42 215 2.42
  10  0.162  0.164  0.321- 135 2.34 117 2.44 171 2.44 189 2.46
  11  0.500  0.167  0.334- 172 2.38 136 2.41 118 2.41 190 2.41
  12  0.833  0.166  0.332- 137 2.38 191 2.41 173 2.41 119 2.41
  13  0.167  0.499  0.333- 192 2.40 138 2.41 174 2.41 120 2.41
  14  0.501  0.501  0.335- 121 2.40 175 2.41 193 2.41 139 2.41
  15  0.834  0.500  0.334- 122 2.40 194 2.40 140 2.41 176 2.41
  16  0.166  0.833  0.332- 141 2.40 177 2.41 123 2.41 195 2.41
  17  0.500  0.834  0.334- 178 2.40 124 2.40 196 2.41 142 2.41
  18  0.833  0.833  0.333- 125 2.41 197 2.41 179 2.41 143 2.41
  19  0.166  0.166  0.665- 144 2.40 198 2.41 180 2.41 126 2.41
  20  0.500  0.166  0.666- 199 2.40 145 2.40 181 2.41 127 2.41
  21  0.834  0.166  0.666- 200 2.38 128 2.41 146 2.41 182 2.41
  22  0.166  0.500  0.666- 147 2.40 183 2.40 129 2.41 201 2.41
  23  0.500  0.500  0.667- 148 2.41 184 2.41 202 2.41 130 2.41
  24  0.834  0.500  0.668- 131 2.38 185 2.41 203 2.41 149 2.41
  25  0.166  0.834  0.667- 186 2.40 132 2.41 204 2.41 150 2.41
  26  0.501  0.834  0.668- 133 2.40 205 2.41 151 2.41 187 2.41
  27  0.844  0.841  0.679- 134 2.34 152 2.44 206 2.44 188 2.46
  28  0.087  0.240  0.168- 135 2.35 110 2.45 192 2.45 162 2.45
  29  0.416  0.250  0.167- 108 2.40 136 2.40 193 2.41 163 2.41
  30  0.750  0.249  0.166- 137 2.40 164 2.41 194 2.41 109 2.42
  31  0.084  0.583  0.167- 138 2.40 165 2.40 195 2.41 113 2.41
  32  0.417  0.584  0.167- 196 2.40 111 2.40 166 2.41 139 2.41
  33  0.750  0.583  0.167- 140 2.40 197 2.40 112 2.41 167 2.41
  34  0.081  0.913  0.153- 168 2.35 189 2.45 141 2.45 116 2.45
  35  0.414  0.918  0.166- 114 2.38 169 2.41 190 2.41 142 2.42
  36  0.750  0.917  0.166- 170 2.40 191 2.40 115 2.41 143 2.41
  37  0.082  0.249  0.497- 171 2.38 144 2.41 119 2.41 201 2.42
  38  0.415  0.250  0.498- 172 2.40 117 2.41 145 2.41 202 2.42
  39  0.750  0.250  0.500- 118 2.40 203 2.40 173 2.40 146 2.40
  40  0.083  0.583  0.500- 147 2.40 122 2.40 174 2.41 204 2.41
  41  0.417  0.584  0.501- 205 2.40 148 2.40 120 2.41 175 2.41
  42  0.752  0.586  0.503- 206 2.38 121 2.41 149 2.41 176 2.42
  43  0.083  0.916  0.499- 177 2.40 125 2.40 150 2.41 198 2.41
  44  0.417  0.917  0.500- 199 2.40 178 2.40 151 2.41 123 2.41
  45  0.751  0.917  0.502- 200 2.40 152 2.41 124 2.41 179 2.42
  46  0.083  0.249  0.833- 153 2.40 128 2.40 180 2.41 210 2.41
  47  0.417  0.250  0.833- 181 2.40 154 2.40 211 2.41 126 2.41
  48  0.751  0.248  0.834- 155 2.38 212 2.41 182 2.41 127 2.42
  49  0.083  0.585  0.834- 131 2.40 213 2.41 183 2.41 156 2.42
  50  0.416  0.583  0.833- 129 2.40 184 2.40 157 2.41 214 2.41
  51  0.751  0.584  0.834- 215 2.40 185 2.40 158 2.41 130 2.41
  52  0.072  0.919  0.832- 134 2.35 159 2.45 186 2.45 207 2.45
  53  0.416  0.917  0.833- 132 2.40 208 2.40 187 2.41 160 2.41
  54  0.760  0.928  0.847- 209 2.35 188 2.45 133 2.45 161 2.45
  55  0.330  0.001  0.000- 207 2.53 169 2.55 136 2.56 132 2.56
  56  0.668  0.001  0.001- 137 2.53 133 2.55 170 2.56 208 2.56
  57  0.000  0.330  1.000- 162 2.53 212 2.55 128 2.56 138 2.56
  58  0.333  0.333  1.000- 210 2.55 163 2.55 139 2.55 126 2.55
  59  0.667  0.332  0.000- 164 2.54 140 2.55 127 2.55 211 2.56
  60  0.001  0.667  0.999- 131 2.53 141 2.55 215 2.56 165 2.56
  61  0.332  0.667  1.000- 213 2.54 129 2.55 142 2.55 166 2.56
  62  0.667  0.667  0.000- 143 2.55 130 2.55 167 2.55 214 2.55
  63  0.999  1.000  0.329- 116 2.53 144 2.55 191 2.56 177 2.56
  64  0.331  1.000  0.331- 114 2.53 189 2.54 145 2.56 178 2.56
  65  0.666  1.000  0.333- 190 2.54 179 2.55 146 2.55 115 2.55
  66  0.000  0.331  0.331- 171 2.53 110 2.54 194 2.56 147 2.56
  67  0.333  0.332  0.334- 172 2.53 192 2.55 108 2.56 148 2.56
  68  0.667  0.334  0.334- 149 2.54 109 2.55 173 2.55 193 2.55
  69  0.000  0.666  0.333- 174 2.54 197 2.55 113 2.55 150 2.55
  70  0.334  0.667  0.334- 151 2.54 111 2.55 175 2.55 195 2.55
  71  0.668  0.668  0.335- 152 2.54 196 2.55 176 2.55 112 2.56
  72  0.999  0.999  0.666- 200 2.53 186 2.55 153 2.56 125 2.56
  73  0.333  1.000  0.666- 123 2.54 154 2.55 198 2.55 187 2.55
  74  0.669  0.000  0.669- 155 2.53 188 2.54 124 2.56 199 2.56
  75  0.000  0.333  0.666- 119 2.54 156 2.55 203 2.55 180 2.55
  76  0.333  0.333  0.665- 117 2.54 181 2.55 201 2.55 157 2.56
  77  0.667  0.333  0.667- 182 2.54 202 2.55 118 2.55 158 2.55
  78  0.999  0.669  0.669- 206 2.53 159 2.54 183 2.56 122 2.56
  79  0.333  0.667  0.667- 204 2.54 184 2.55 160 2.55 120 2.55
  80  0.670  0.670  0.671- 161 2.53 121 2.55 185 2.56 205 2.56
  81  0.241  0.087  0.168- 135 2.47 114 2.58 207 2.58 172 2.59
  82  0.583  0.083  0.166- 136 2.54 208 2.55 173 2.55 115 2.55
  83  0.913  0.081  0.154- 209 2.47 171 2.58 116 2.58 137 2.59
  84  0.250  0.416  0.167- 108 2.54 138 2.55 175 2.55 210 2.55
  85  0.584  0.417  0.167- 176 2.55 109 2.55 211 2.55 139 2.55
  86  0.918  0.414  0.167- 110 2.53 212 2.55 174 2.56 140 2.56
  87  0.249  0.750  0.166- 213 2.54 141 2.54 178 2.55 111 2.56
  88  0.583  0.750  0.167- 142 2.55 179 2.55 112 2.55 214 2.55
  89  0.917  0.750  0.166- 215 2.54 177 2.55 113 2.55 143 2.55
  90  0.249  0.082  0.496- 189 2.53 144 2.55 123 2.56 181 2.56
  91  0.583  0.083  0.500- 145 2.55 124 2.55 182 2.55 190 2.55
  92  0.917  0.083  0.499- 191 2.54 125 2.55 146 2.55 180 2.55
  93  0.250  0.415  0.499- 117 2.54 192 2.54 147 2.55 184 2.56
  94  0.584  0.417  0.501- 185 2.54 148 2.55 118 2.55 193 2.55
  95  0.917  0.417  0.500- 194 2.55 183 2.55 119 2.55 149 2.55
  96  0.250  0.750  0.500- 150 2.55 187 2.55 120 2.55 195 2.55
  97  0.586  0.753  0.504- 188 2.53 121 2.55 151 2.56 196 2.56
  98  0.917  0.751  0.501- 152 2.54 186 2.54 122 2.55 197 2.56
  99  0.249  0.083  0.833- 153 2.54 132 2.55 198 2.55 163 2.55
 100  0.585  0.083  0.834- 164 2.54 133 2.54 199 2.55 154 2.56
 101  0.919  0.073  0.832- 134 2.47 155 2.58 162 2.58 200 2.59
 102  0.250  0.417  0.833- 201 2.55 156 2.55 166 2.55 126 2.55
 103  0.583  0.416  0.833- 127 2.55 202 2.55 157 2.55 167 2.55
 104  0.917  0.416  0.834- 128 2.54 165 2.55 203 2.55 158 2.55
 105  0.247  0.751  0.833- 159 2.53 169 2.55 204 2.56 129 2.56
 106  0.584  0.751  0.834- 170 2.54 205 2.55 160 2.55 130 2.55
 107  0.927  0.759  0.846- 168 2.47 206 2.58 161 2.58 131 2.59
 108  0.291  0.284  0.159-  29 2.40   1 2.42  84 2.54  67 2.56
 109  0.625  0.285  0.159-   2 2.41  30 2.42  85 2.55  68 2.55
 110  0.958  0.281  0.157-  28 2.45   3 2.46  86 2.53  66 2.54
 111  0.292  0.618  0.160-  32 2.40   4 2.41  70 2.55  87 2.56
 112  0.625  0.618  0.159-   5 2.40  33 2.41  88 2.55  71 2.56
 113  0.959  0.618  0.160-   6 2.41  31 2.41  69 2.55  89 2.55
 114  0.290  0.952  0.158-  35 2.38   7 2.44  64 2.53  81 2.58
 115  0.625  0.951  0.159-   8 2.41  36 2.41  82 2.55  65 2.55
 116  0.959  0.952  0.158-   9 2.39  34 2.45  63 2.53  83 2.58
 117  0.290  0.282  0.490-  38 2.41  10 2.44  76 2.54  93 2.54
 118  0.625  0.285  0.493-  39 2.40  11 2.41  77 2.55  94 2.55
 119  0.958  0.284  0.492-  12 2.41  37 2.41  75 2.54  95 2.55
 120  0.292  0.618  0.493-  41 2.41  13 2.41  96 2.55  79 2.55
 121  0.625  0.619  0.494-  14 2.40  42 2.41  80 2.55  97 2.55
 122  0.959  0.618  0.494-  15 2.40  40 2.40  98 2.55  78 2.56
 123  0.291  0.951  0.492-  44 2.41  16 2.41  73 2.54  90 2.56
 124  0.625  0.951  0.493-  17 2.40  45 2.41  91 2.55  74 2.56
 125  0.958  0.951  0.493-  43 2.40  18 2.41  92 2.55  72 2.56
 126  0.292  0.284  0.826-  47 2.41  19 2.41  58 2.55 102 2.55
 127  0.626  0.284  0.826-  20 2.41  48 2.42 103 2.55  59 2.55
 128  0.958  0.284  0.826-  46 2.40  21 2.41 104 2.54  57 2.56
 129  0.291  0.618  0.826-  50 2.40  22 2.41  61 2.55 105 2.56
 130  0.625  0.618  0.826-  23 2.41  51 2.41  62 2.55 106 2.55
 131  0.957  0.618  0.825-  24 2.38  49 2.40  60 2.53 107 2.59
 132  0.291  0.951  0.827-  53 2.40  25 2.41  99 2.55  55 2.56
 133  0.627  0.951  0.827-  26 2.40  54 2.45 100 2.54  56 2.55
 134  0.963  0.958  0.850-  27 2.34  52 2.35 101 2.47
 135  0.108  0.113  0.150-  10 2.34  28 2.35  81 2.47
 136  0.458  0.132  0.174-  29 2.40  11 2.41  82 2.54  55 2.56
 137  0.793  0.132  0.175-  12 2.38  30 2.40  56 2.53  83 2.59
 138  0.124  0.464  0.173-  31 2.40  13 2.41  84 2.55  57 2.56
 139  0.458  0.466  0.174-  32 2.41  14 2.41  58 2.55  85 2.55
 140  0.792  0.465  0.174-  33 2.40  15 2.41  59 2.55  86 2.56
 141  0.124  0.800  0.173-  16 2.40  34 2.45  87 2.54  60 2.55
 142  0.458  0.799  0.174-  17 2.41  35 2.42  88 2.55  61 2.55
 143  0.792  0.799  0.174-  18 2.41  36 2.41  62 2.55  89 2.55
 144  0.125  0.132  0.506-  19 2.40  37 2.41  63 2.55  90 2.55
 145  0.458  0.132  0.507-  20 2.40  38 2.41  91 2.55  64 2.56
 146  0.792  0.132  0.507-  39 2.40  21 2.41  65 2.55  92 2.55
 147  0.125  0.465  0.506-  22 2.40  40 2.40  93 2.55  66 2.56
 148  0.458  0.466  0.507-  41 2.40  23 2.41  94 2.55  67 2.56
 149  0.792  0.466  0.508-  24 2.41  42 2.41  68 2.54  95 2.55
 150  0.125  0.799  0.507-  43 2.41  25 2.41  96 2.55  69 2.55
 151  0.459  0.799  0.508-  44 2.41  26 2.41  70 2.54  97 2.56
 152  0.793  0.800  0.510-  45 2.41  27 2.44  71 2.54  98 2.54
 153  0.124  0.132  0.841-  46 2.40   1 2.42  99 2.54  72 2.56
 154  0.459  0.132  0.840-  47 2.40   2 2.41  73 2.55 100 2.56
 155  0.794  0.132  0.842-  48 2.38   3 2.44  74 2.53 101 2.58
 156  0.125  0.466  0.841-   4 2.41  49 2.42 102 2.55  75 2.55
 157  0.458  0.466  0.841-   5 2.40  50 2.41 103 2.55  76 2.56
 158  0.792  0.466  0.841-   6 2.41  51 2.41 104 2.55  77 2.55
 159  0.124  0.801  0.843-  52 2.45   7 2.46 105 2.53  78 2.54
 160  0.458  0.799  0.840-   8 2.41  53 2.41  79 2.55 106 2.55
 161  0.794  0.801  0.842-   9 2.39  54 2.45  80 2.53 107 2.58
 162  0.048  0.206  0.007-   1 2.39  28 2.45  57 2.53 101 2.58
 163  0.382  0.208  0.007-   2 2.41  29 2.41  58 2.55  99 2.55
 164  0.718  0.207  0.007-  30 2.41   3 2.44  59 2.54 100 2.54
 165  0.049  0.542  0.007-  31 2.40   4 2.41 104 2.55  60 2.56
 166  0.382  0.542  0.007-   5 2.40  32 2.41 102 2.55  61 2.56
 167  0.716  0.542  0.007-  33 2.41   6 2.41  62 2.55 103 2.55
 168  0.042  0.892  0.006-   7 2.34  34 2.35 107 2.47
 169  0.381  0.875  0.007-   8 2.40  35 2.41  55 2.55 105 2.55
 170  0.716  0.876  0.007-  36 2.40   9 2.42 106 2.54  56 2.56
 171  0.048  0.206  0.338-  37 2.38  10 2.44  66 2.53  83 2.58
 172  0.382  0.207  0.339-  11 2.38  38 2.40  67 2.53  81 2.59
 173  0.715  0.208  0.341-  39 2.40  12 2.41  68 2.55  82 2.55
 174  0.049  0.541  0.340-  40 2.41  13 2.41  69 2.54  86 2.56
 175  0.382  0.542  0.341-  14 2.41  41 2.41  70 2.55  84 2.55
 176  0.716  0.542  0.341-  15 2.41  42 2.42  85 2.55  71 2.55
 177  0.049  0.876  0.340-  43 2.40  16 2.41  89 2.55  63 2.56
 178  0.382  0.875  0.340-  17 2.40  44 2.40  87 2.55  64 2.56
 179  0.715  0.875  0.340-  18 2.41  45 2.42  88 2.55  65 2.55
 180  0.049  0.208  0.674-  19 2.41  46 2.41  92 2.55  75 2.55
 181  0.382  0.208  0.673-  47 2.40  20 2.41  76 2.55  90 2.56
 182  0.716  0.208  0.674-  21 2.41  48 2.41  77 2.54  91 2.55
 183  0.049  0.542  0.674-  22 2.40  49 2.41  95 2.55  78 2.56
 184  0.382  0.541  0.674-  50 2.40  23 2.41  79 2.55  93 2.56
 185  0.716  0.542  0.674-  51 2.40  24 2.41  94 2.54  80 2.56
 186  0.049  0.876  0.676-  25 2.40  52 2.45  98 2.54  72 2.55
 187  0.382  0.875  0.674-  53 2.41  26 2.41  96 2.55  73 2.55
 188  0.719  0.876  0.677-  54 2.45  27 2.46  97 2.53  74 2.54
 189  0.199  0.042  0.323-  34 2.45  10 2.46  90 2.53  64 2.54
 190  0.534  0.042  0.326-  11 2.41  35 2.41  65 2.54  91 2.55
 191  0.868  0.042  0.326-  36 2.40  12 2.41  92 2.54  63 2.56
 192  0.200  0.373  0.324-  13 2.40  28 2.45  93 2.54  67 2.55
 193  0.534  0.375  0.326-  14 2.41  29 2.41  94 2.55  68 2.55
 194  0.868  0.375  0.326-  15 2.40  30 2.41  95 2.55  66 2.56
 195  0.201  0.708  0.326-  31 2.41  16 2.41  96 2.55  70 2.55
 196  0.535  0.709  0.327-  32 2.40  17 2.41  71 2.55  97 2.56
 197  0.868  0.708  0.326-  33 2.40  18 2.41  69 2.55  98 2.56
 198  0.201  0.041  0.659-  19 2.41  43 2.41  73 2.55  99 2.55
 199  0.535  0.041  0.660-  20 2.40  44 2.40 100 2.55  74 2.56
 200  0.868  0.043  0.661-  21 2.38  45 2.40  72 2.53 101 2.59
 201  0.201  0.374  0.659-  22 2.41  37 2.42 102 2.55  76 2.55
 202  0.534  0.375  0.660-  23 2.41  38 2.42 103 2.55  77 2.55
 203  0.868  0.375  0.659-  39 2.40  24 2.41  75 2.55 104 2.55
 204  0.201  0.709  0.660-  40 2.41  25 2.41  79 2.54 105 2.56
 205  0.536  0.709  0.660-  41 2.40  26 2.41 106 2.55  80 2.56
 206  0.868  0.710  0.662-  42 2.38  27 2.44  78 2.53 107 2.58
 207  0.199  0.041  0.993-   1 2.39  52 2.45  55 2.53  81 2.58
 208  0.534  0.042  0.993-  53 2.40   2 2.41  82 2.55  56 2.56
 209  0.887  0.037  0.994-   3 2.34  54 2.35  83 2.47
 210  0.201  0.375  0.993-   4 2.41  46 2.41  58 2.55  84 2.55
 211  0.534  0.375  0.993-   5 2.40  47 2.41  85 2.55  59 2.56
 212  0.868  0.375  0.993-   6 2.40  48 2.41  57 2.55  86 2.55
 213  0.200  0.710  0.993-  49 2.41   7 2.44  61 2.54  87 2.54
 214  0.534  0.708  0.993-  50 2.41   8 2.41  62 2.55  88 2.55
 215  0.868  0.709  0.993-  51 2.40   9 2.42  89 2.54  60 2.56
 
  Warning from LATTYP: Got some problem with cell dimensions!
  Tried to take original basis but could not verify dimensions!
  LATTYP: Found a base centered monoclinic cell.
 ALAT       =    24.2124827023
 B/A-ratio  =     0.9999971671
 C/A-ratio  =     1.6588105817
 COS(beta)  =    -0.6394115689
  
  Lattice vectors:
  
 A1 = (   6.9837370246,  -9.8887646566,  12.1062413511)
 A2 = (  -6.9836976828,   9.8887924410,  12.1062413511)
 A3 = ( -14.0079755923,  -9.8928034189, -36.3187242645)


Analysis of symmetry for initial positions (statically):
=====================================================================
 Subroutine PRICEL returns:
 Original cell was already a primitive cell.
 

 Routine SETGRP: Setting up the symmetry group for a 
 base centered monoclinic supercell.


 Subroutine GETGRP returns: Found  1 space group operations
 (whereof  1 operations were pure point group operations)
 out of a pool of  4 trial point group operations.


The static configuration has the point symmetry C_1 .


Analysis of symmetry for dynamics (positions and initial velocities):
=====================================================================
 Subroutine PRICEL returns:
 Original cell was already a primitive cell.
 

 Routine SETGRP: Setting up the symmetry group for a 
 base centered monoclinic supercell.


 Subroutine GETGRP returns: Found  1 space group operations
 (whereof  1 operations were pure point group operations)
 out of a pool of  4 trial point group operations.


The dynamic configuration has the point symmetry C_1 .


 irot  :   1
 --------------------------------------------------------------------
 isymop:   1   0   0
           0   1   0
           0   0   1

 gtrans:     0.0000000     0.0000000     0.0000000

 ptrans:     0.0000000     0.0000000     0.0000000
 rotmap:
 (   1->   1)  (   2->   2)  (   3->   3)  (   4->   4)  (   5->   5) 
 (   6->   6)  (   7->   7)  (   8->   8)  (   9->   9)  (  10->  10) 
 (  11->  11)  (  12->  12)  (  13->  13)  (  14->  14)  (  15->  15) 
 (  16->  16)  (  17->  17)  (  18->  18)  (  19->  19)  (  20->  20) 
 (  21->  21)  (  22->  22)  (  23->  23)  (  24->  24)  (  25->  25) 
 (  26->  26)  (  27->  27)  (  28->  28)  (  29->  29)  (  30->  30) 
 (  31->  31)  (  32->  32)  (  33->  33)  (  34->  34)  (  35->  35) 
 (  36->  36)  (  37->  37)  (  38->  38)  (  39->  39)  (  40->  40) 
 (  41->  41)  (  42->  42)  (  43->  43)  (  44->  44)  (  45->  45) 
 (  46->  46)  (  47->  47)  (  48->  48)  (  49->  49)  (  50->  50) 
 (  51->  51)  (  52->  52)  (  53->  53)  (  54->  54)  (  55->  55) 
 (  56->  56)  (  57->  57)  (  58->  58)  (  59->  59)  (  60->  60) 
 (  61->  61)  (  62->  62)  (  63->  63)  (  64->  64)  (  65->  65) 
 (  66->  66)  (  67->  67)  (  68->  68)  (  69->  69)  (  70->  70) 
 (  71->  71)  (  72->  72)  (  73->  73)  (  74->  74)  (  75->  75) 
 (  76->  76)  (  77->  77)  (  78->  78)  (  79->  79)  (  80->  80) 
 (  81->  81)  (  82->  82)  (  83->  83)  (  84->  84)  (  85->  85) 
 (  86->  86)  (  87->  87)  (  88->  88)  (  89->  89)  (  90->  90) 
 (  91->  91)  (  92->  92)  (  93->  93)  (  94->  94)  (  95->  95) 
 (  96->  96)  (  97->  97)  (  98->  98)  (  99->  99)  ( 100-> 100) 
 ( 101-> 101)  ( 102-> 102)  ( 103-> 103)  ( 104-> 104)  ( 105-> 105) 
 ( 106-> 106)  ( 107-> 107)  ( 108-> 108)  ( 109-> 109)  ( 110-> 110) 
 ( 111-> 111)  ( 112-> 112)  ( 113-> 113)  ( 114-> 114)  ( 115-> 115) 
 ( 116-> 116)  ( 117-> 117)  ( 118-> 118)  ( 119-> 119)  ( 120-> 120) 
 ( 121-> 121)  ( 122-> 122)  ( 123-> 123)  ( 124-> 124)  ( 125-> 125) 
 ( 126-> 126)  ( 127-> 127)  ( 128-> 128)  ( 129-> 129)  ( 130-> 130) 
 ( 131-> 131)  ( 132-> 132)  ( 133-> 133)  ( 134-> 134)  ( 135-> 135) 
 ( 136-> 136)  ( 137-> 137)  ( 138-> 138)  ( 139-> 139)  ( 140-> 140) 
 ( 141-> 141)  ( 142-> 142)  ( 143-> 143)  ( 144-> 144)  ( 145-> 145) 
 ( 146-> 146)  ( 147-> 147)  ( 148-> 148)  ( 149-> 149)  ( 150-> 150) 
 ( 151-> 151)  ( 152-> 152)  ( 153-> 153)  ( 154-> 154)  ( 155-> 155) 
 ( 156-> 156)  ( 157-> 157)  ( 158-> 158)  ( 159-> 159)  ( 160-> 160) 
 ( 161-> 161)  ( 162-> 162)  ( 163-> 163)  ( 164-> 164)  ( 165-> 165) 
 ( 166-> 166)  ( 167-> 167)  ( 168-> 168)  ( 169-> 169)  ( 170-> 170) 
 ( 171-> 171)  ( 172-> 172)  ( 173-> 173)  ( 174-> 174)  ( 175-> 175) 
 ( 176-> 176)  ( 177-> 177)  ( 178-> 178)  ( 179-> 179)  ( 180-> 180) 
 ( 181-> 181)  ( 182-> 182)  ( 183-> 183)  ( 184-> 184)  ( 185-> 185) 
 ( 186-> 186)  ( 187-> 187)  ( 188-> 188)  ( 189-> 189)  ( 190-> 190) 
 ( 191-> 191)  ( 192-> 192)  ( 193-> 193)  ( 194-> 194)  ( 195-> 195) 
 ( 196-> 196)  ( 197-> 197)  ( 198-> 198)  ( 199-> 199)  ( 200-> 200) 
 ( 201-> 201)  ( 202-> 202)  ( 203-> 203)  ( 204-> 204)  ( 205-> 205) 
 ( 206-> 206)  ( 207-> 207)  ( 208-> 208)  ( 209-> 209)  ( 210-> 210) 
 ( 211-> 211)  ( 212-> 212)  ( 213-> 213)  ( 214-> 214)  ( 215-> 215) 
 
 
 KPOINTS: Automatic mesh                          

Automatic generation of k-mesh.
Space group operators:
 irot       det(A)        alpha          n_x          n_y          n_z        tau_x        tau_y        tau_z
    1     1.000000     0.000000     1.000000     0.000000     0.000000     0.000000     0.000000     0.000000
 
 Subroutine IBZKPT returns following result:
 ===========================================
 
 Found      1 irreducible k-points:
 
 Following reciprocal coordinates:
            Coordinates               Weight
  0.000000  0.000000  0.000000      1.000000
 
 Following cartesian coordinates:
            Coordinates               Weight
  0.000000  0.000000  0.000000      1.000000
 


--------------------------------------------------------------------------------------------------------




 Dimension of arrays:
   k-points           NKPTS =      1   k-points in BZ     NKDIM =      1   number of bands    NBANDS=    844
   number of dos      NEDOS =    301   number of ions     NIONS =    215
   non local maximal  LDIM  =      6   non local SUM 2l+1 LMDIM =     18
   total plane-waves  NPLWV = ******
   max r-space proj   IRMAX =   7014   max aug-charges    IRDMAX=  33285
   dimension x,y,z NGX =   120 NGY =  120 NGZ =  120
   dimension x,y,z NGXF=   240 NGYF=  240 NGZF=  240
   support grid    NGXF=   240 NGYF=  240 NGZF=  240
   ions per type =              54  53 108
 NGX,Y,Z   is equivalent  to a cutoff of   9.50,  9.50,  9.50 a.u.
 NGXF,Y,Z  is equivalent  to a cutoff of  19.01, 19.01, 19.01 a.u.


 I would recommend the setting:
   dimension x,y,z NGX =   119 NGY =  119 NGZ =  119
 SYSTEM =  unknown system                          
 POSCAR =  CIF file-3x3x3                          

 Startparameter for this run:
   NWRITE =      2    write-flag & timer
   PREC   = a         normal or accurate (medium, high low for compatibility)
   ISTART =      0    job   : 0-new  1-cont  2-samecut
   ICHARG =      2    charge: 1-file 2-atom 10-const
   ISPIN  =      1    spin polarized calculation?
   LNONCOLLINEAR =      F non collinear calculations
   LSORBIT =      F    spin-orbit coupling
   INIWAV =      1    electr: 0-lowe 1-rand  2-diag
   LASPH  =      T    aspherical Exc in radial PAW
   METAGGA=      F    non-selfconsistent MetaGGA calc.

 Electronic Relaxation 1
   ENCUT  =  300.0 eV  22.05 Ry    4.70 a.u.  29.65 29.65 29.65*2*pi/ulx,y,z
   ENINI  =  300.0     initial cutoff
   ENAUG  =  575.9 eV  augmentation charge cutoff
   NELM   =    120;   NELMIN=  4; NELMDL= -5     # of ELM steps 
   EDIFF  = 0.1E-03   stopping-criterion for ELM
   LREAL  =      T    real-space projection
   NLSPLINE    = F    spline interpolate recip. space projectors
   LCOMPAT=      F    compatible to vasp.4.4
   GGA_COMPAT  = T    GGA compatible to vasp.4.4-vasp.4.6
   LMAXPAW     = -100 max onsite density
   LMAXMIX     =    2 max onsite mixed and CHGCAR
   VOSKOWN=      0    Vosko Wilk Nusair interpolation
   ROPT   =   -0.00025  -0.00025  -0.00025
 Ionic relaxation
   EDIFFG = -.1E-01   stopping-criterion for IOM
   NSW    =     50    number of steps for IOM
   NBLOCK =      1;   KBLOCK =     50    inner block; outer block 
   IBRION =      2    ionic relax: 0-MD 1-quasi-New 2-CG
   NFREE  =      1    steps in history (QN), initial steepest desc. (CG)
   ISIF   =      2    stress and relaxation
   IWAVPR =     11    prediction:  0-non 1-charg 2-wave 3-comb
   ISYM   =      2    0-nonsym 1-usesym 2-fastsym
   LCORR  =      T    Harris-Foulkes like correction to forces

   POTIM  = 0.5000    time-step for ionic-motion
   TEIN   =    0.0    initial temperature
   TEBEG  =    0.0;   TEEND  =   0.0 temperature during run
   SMASS  =  -3.00    Nose mass-parameter (am)
   estimated Nose-frequenzy (Omega)   =  0.10E-29 period in steps =****** mass=  -0.101E-25a.u.
   SCALEE = 1.0000    scale energy and forces
   NPACO  =    256;   APACO  = 16.0  distance and # of slots for P.C.
   PSTRESS=    0.0 pullay stress

  Mass of Ions in am
   POMASS =  65.39118.71 30.97
  Ionic Valenz
   ZVAL   =  12.00  4.00  5.00
  Atomic Wigner-Seitz radii
   RWIGS  =  -1.00 -1.00 -1.00
  virtual crystal weights 
   VCA    =   1.00  1.00  1.00
   NELECT =    1404.0000    total number of electrons
   NUPDOWN=      -1.0000    fix difference up-down

 DOS related values:
   EMIN   =  10.00;   EMAX   =-10.00  energy-range for DOS
   EFERMI =   0.00
   ISMEAR =     0;   SIGMA  =   0.01  broadening in eV -4-tet -1-fermi 0-gaus

 Electronic relaxation 2 (details)
   IALGO  =     38    algorithm
   LDIAG  =      T    sub-space diagonalisation (order eigenvalues)
   LSUBROT=      T    optimize rotation matrix (better conditioning)
   TURBO    =      0    0=normal 1=particle mesh
   IRESTART =      0    0=no restart 2=restart with 2 vectors
   NREBOOT  =      0    no. of reboots
   NMIN     =      0    reboot dimension
   EREF     =   0.00    reference energy to select bands
   IMIX   =      4    mixing-type and parameters
     AMIX     =   0.40;   BMIX     =  1.00
     AMIX_MAG =   1.60;   BMIX_MAG =  1.00
     AMIN     =   0.10
     WC   =   100.;   INIMIX=   1;  MIXPRE=   1;  MAXMIX= -45

 Intra band minimization:
   WEIMIN = 0.0010     energy-eigenvalue tresh-hold
   EBREAK =  0.30E-07  absolut break condition
   DEPER  =   0.30     relativ break condition  

   TIME   =   0.40     timestep for ELM

  volume/ion in A,a.u.               =      23.38       157.78
  Fermi-wavevector in a.u.,A,eV,Ry     =   1.070126  2.022246 15.580990  1.145170
  Thomas-Fermi vector in A             =   2.205827
 
 Write flags
   LWAVE  =      F    write WAVECAR
   LCHARG =      F    write CHGCAR
   LVTOT  =      F    write LOCPOT, total local potential
   LVHAR  =      F    write LOCPOT, Hartree potential only
   LELF   =      F    write electronic localiz. function (ELF)
   LORBIT =     12    0 simple, 1 ext, 2 COOP (PROOUT)


 Dipole corrections
   LMONO  =      F    monopole corrections only (constant potential shift)
   LDIPOL =      F    correct potential (dipole corrections)
   IDIPOL =      0    1-x, 2-y, 3-z, 4-all directions 
   EPSILON=  1.0000000 bulk dielectric constant

 Exchange correlation treatment:
   GGA     =    --    GGA type
   LEXCH   =     8    internal setting for exchange type
   VOSKOWN=      0    Vosko Wilk Nusair interpolation
   LHFCALC =     F    Hartree Fock is set to
   LHFONE  =     F    Hartree Fock one center treatment
   AEXX    =    0.0000 exact exchange contribution

 Linear response parameters
   LEPSILON=     F    determine dielectric tensor
   LRPA    =     F    only Hartree local field effects (RPA)
   LNABLA  =     F    use nabla operator in PAW spheres
   LVEL    =     F    velocity operator in full k-point grid
   LINTERFAST=   F  fast interpolation
   KINTER  =     0    interpolate to denser k-point grid
   CSHIFT  =0.1000    complex shift for real part using Kramers Kronig
   OMEGAMAX=  -1.0    maximum frequency
   DEG_THRESHOLD= 0.2000000E-02 threshold for treating states as degnerate
   RTIME   =    0.100 relaxation time in fs

 Orbital magnetization related:
   ORBITALMAG=     F  switch on orbital magnetization
   LCHIMAG   =     F  perturbation theory with respect to B field
   DQ        =  0.001000  dq finite difference perturbation B field



--------------------------------------------------------------------------------------------------------


 conjugate gradient relaxation of ions
 charge density and potential will be updated during run
 non-spin polarized calculation
 Variant of blocked Davidson
 Davidson routine will perform the subspace rotation
 perform sub-space diagonalisation
    after iterative eigenvector-optimisation
 modified Broyden-mixing scheme, WC =      100.0
 initial mixing is a Kerker type mixing with AMIX =  0.4000 and BMIX =      1.0000
 Hartree-type preconditioning will be used
 using additional bands          142
 real space projection scheme for non local part
 use partial core corrections
 calculate Harris-corrections to forces 
   (improved forces if not selfconsistent)
 use gradient corrections 
 use of overlap-Matrix (Vanderbilt PP)
 Gauss-broadening in eV      SIGMA  =   0.01


--------------------------------------------------------------------------------------------------------


  energy-cutoff  :      300.00
  volume of cell :     5026.74
      direct lattice vectors                 reciprocal lattice vectors
    20.991633933  0.003983193  0.000000211     0.047641235 -0.016916859  0.041300952
     7.024199226 19.781540291  0.000000211    -0.000009593  0.050555587  0.041300952
   -14.007896909 -9.892747850 12.106241140    -0.000000001 -0.000000001  0.082602021

  length of vectors
    20.991634311 20.991634311 20.991634295     0.065281208  0.065281208  0.082602021


 
 k-points in units of 2pi/SCALE and weight: Automatic mesh                          
   0.00000000  0.00000000  0.00000000       1.000
 
 k-points in reciprocal lattice and weights: Automatic mesh                          
   0.00000000  0.00000000  0.00000000       1.000
 
 position of ions in fractional coordinates (direct lattice) 
   0.16498477  0.16498511  0.00000408
   0.49985558  0.16668347  0.99987485
   0.83560092  0.15610732  0.99754230
   0.16681494  0.49998754  0.00013757
   0.49999922  0.49999941  0.99999883
   0.83402998  0.49915336  0.00025396
   0.15856529  0.83805730  0.00245853
   0.49889785  0.83377532  0.99974464
   0.83501502  0.83501641  0.00000003
   0.16194353  0.16440125  0.32050798
   0.49954618  0.16727652  0.33375684
   0.83272486  0.16647846  0.33227052
   0.16692738  0.49854029  0.33297284
   0.50084337  0.50109818  0.33487376
   0.83380528  0.50013706  0.33385876
   0.16604564  0.83307640  0.33161510
   0.49986300  0.83372047  0.33366901
   0.83332030  0.83318649  0.33317400
   0.16622781  0.16597200  0.66512522
   0.50005389  0.16619312  0.66633046
   0.83352426  0.16578809  0.66624712
   0.16627748  0.49995029  0.66614052
   0.50001894  0.50015279  0.66683194
   0.83421147  0.50045772  0.66773382
   0.16557103  0.83395630  0.66703221
   0.50145915  0.83442777  0.66838338
   0.84389092  0.84143239  0.67948935
   0.08695024  0.24001566  0.16758825
   0.41627095  0.25015614  0.16710083
   0.75038207  0.24853703  0.16580331
   0.08362633  0.58256782  0.16651499
   0.41702994  0.58388012  0.16729765
   0.75026569  0.58296931  0.16684926
   0.08063534  0.91305133  0.15306575
   0.41416741  0.91762015  0.16625649
   0.74984406  0.91694185  0.16611511
   0.08238631  0.24864118  0.49655352
   0.41542554  0.24962456  0.49815758
   0.75000046  0.25000251  0.50000211
   0.08308656  0.58308694  0.49999927
   0.41743430  0.58394876  0.50106016
   0.75208484  0.58583134  0.50345015
   0.08289010  0.91637837  0.49894615
   0.41691493  0.91691347  0.50000067
   0.75145964  0.91726200  0.50183767
   0.08306124  0.24917407  0.83290702
   0.41658641  0.24973305  0.83270509
   0.75136352  0.24791171  0.83374510
   0.08272974  0.58457511  0.83419468
   0.41611897  0.58341604  0.83314846
   0.75082877  0.58373106  0.83388581
   0.07242876  0.91936283  0.83241342
   0.41605529  0.91710921  0.83348586
   0.75998304  0.92757075  0.84693310
   0.33028608  0.00085841  0.00048662
   0.66771121  0.00145729  0.00087508
   0.00037090  0.32979899  0.99951261
   0.33327191  0.33327174  0.99999892
   0.66729152  0.33209886  0.00018894
   0.00058220  0.66683764  0.99912673
   0.33190765  0.66710246  0.99980947
   0.66672796  0.66672822  0.00000073
   0.99914170  0.99962983  0.32942857
   0.33108286  0.99993391  0.33058398
   0.66626045  0.99985821  0.33324644
   0.00006625  0.33064915  0.33114801
   0.33316350  0.33229035  0.33374654
   0.66698595  0.33373971  0.33359763
   0.00000537  0.66620740  0.33337791
   0.33379247  0.66717166  0.33379837
   0.66789957  0.66808927  0.33519063
   0.99854370  0.99941874  0.66625504
   0.33337322  0.99999468  0.66620164
   0.66935089  0.00049837  0.66941596
   0.00014367  0.33338788  0.66640350
   0.33289892  0.33270754  0.66480734
   0.66661281  0.33301525  0.66675576
   0.99949950  0.66891634  0.66885017
   0.33282876  0.66662769  0.66662243
   0.67019989  0.66971245  0.67057013
   0.24089929  0.08695792  0.16770889
   0.58262688  0.08345132  0.16627431
   0.91304200  0.08075142  0.15394183
   0.24994746  0.41606162  0.16696547
   0.58378169  0.41719309  0.16723658
   0.91753712  0.41393343  0.16654105
   0.24896193  0.75045605  0.16578656
   0.58280510  0.75004322  0.16658671
   0.91701831  0.75005295  0.16611550
   0.24900422  0.08246233  0.49639572
   0.58297988  0.08297961  0.50000023
   0.91654844  0.08282315  0.49917555
   0.24954417  0.41533192  0.49850686
   0.58364748  0.41737321  0.50082535
   0.91702097  0.41701928  0.49999957
   0.24999976  0.74999999  0.49999983
   0.58606628  0.75260653  0.50360213
   0.91682524  0.75103719  0.50149276
   0.24909727  0.08298216  0.83303521
   0.58466864  0.08317517  0.83421329
   0.91924843  0.07318848  0.83228835
   0.24995710  0.41654545  0.83276303
   0.58345529  0.41621838  0.83341134
   0.91717751  0.41635204  0.83372557
   0.24739106  0.75099564  0.83345752
   0.58393866  0.75090413  0.83388605
   0.92680969  0.75910115  0.84605876
   0.29112031  0.28370123  0.15926662
   0.62503319  0.28457958  0.15932297
   0.95839454  0.28138475  0.15736171
   0.29170277  0.61812175  0.15956141
   0.62498917  0.61774579  0.15945752
   0.95852143  0.61785065  0.15962388
   0.28970137  0.95215297  0.15797032
   0.62473224  0.95108457  0.15923255
   0.95943803  0.95242568  0.15830850
   0.28973639  0.28247256  0.48977336
   0.62537075  0.28477588  0.49324782
   0.95830824  0.28433585  0.49243292
   0.29162312  0.61756052  0.49263914
   0.62548422  0.61868534  0.49374759
   0.95850971  0.61829511  0.49372354
   0.29140035  0.95115119  0.49225561
   0.62531582  0.95105455  0.49329325
   0.95846112  0.95102626  0.49286141
   0.29150531  0.28419600  0.82577912
   0.62556458  0.28411292  0.82637197
   0.95829397  0.28419363  0.82635519
   0.29135342  0.61826090  0.82624787
   0.62522519  0.61810195  0.82622999
   0.95719370  0.61819875  0.82505363
   0.29147679  0.95130604  0.82700852
   0.62694404  0.95085848  0.82657323
   0.96314884  0.95753958  0.84986600
   0.10766897  0.11327977  0.15012783
   0.45783901  0.13193713  0.17364518
   0.79314525  0.13214105  0.17494717
   0.12429809  0.46446618  0.17299124
   0.45841567  0.46572346  0.17422024
   0.79201153  0.46510546  0.17375162
   0.12428440  0.80037215  0.17342536
   0.45773950  0.79919277  0.17362737
   0.79187234  0.79899531  0.17377442
   0.12493642  0.13173659  0.50624790
   0.45776041  0.13202307  0.50670378
   0.79152775  0.13212365  0.50675246
   0.12457076  0.46478600  0.50627441
   0.45816430  0.46560070  0.50713779
   0.79190433  0.46587384  0.50756801
   0.12492159  0.79898393  0.50736137
   0.45889559  0.79914284  0.50774354
   0.79269815  0.79995946  0.51022452
   0.12443652  0.13185417  0.84073614
   0.45856034  0.13214184  0.84044103
   0.79418152  0.13172878  0.84202643
   0.12525852  0.46571083  0.84068147
   0.45828657  0.46553056  0.84053962
   0.79185286  0.46550073  0.84076690
   0.12402162  0.80103146  0.84263646
   0.45822653  0.79889601  0.84037504
   0.79411483  0.80112819  0.84168843
   0.04757284  0.20588228  0.00701243
   0.38190035  0.20812821  0.00712464
   0.71752710  0.20730085  0.00726108
   0.04897332  0.54183522  0.00743520
   0.38225333  0.54171368  0.00724475
   0.71580464  0.54158324  0.00730770
   0.04245752  0.89232830  0.00560849
   0.38131174  0.87506365  0.00679949
   0.71629764  0.87556494  0.00741882
   0.04784682  0.20581835  0.33754826
   0.38180112  0.20685485  0.33899473
   0.71522332  0.20847131  0.34059454
   0.04884877  0.54110434  0.34024782
   0.38214738  0.54177306  0.34066979
   0.71588610  0.54225900  0.34145152
   0.04869373  0.87570287  0.34016996
   0.38170315  0.87542817  0.34021296
   0.71542002  0.87474201  0.34045098
   0.04891562  0.20814691  0.67364821
   0.38174114  0.20798659  0.67309383
   0.71566367  0.20809431  0.67396900
   0.04894319  0.54223895  0.67426128
   0.38187914  0.54143961  0.67358044
   0.71580494  0.54215996  0.67409716
   0.04913987  0.87571497  0.67608559
   0.38243940  0.87507748  0.67406108
   0.71861498  0.87597632  0.67700837
   0.19896732  0.04160515  0.32298982
   0.53412505  0.04169384  0.32603005
   0.86806184  0.04170672  0.32590118
   0.19962774  0.37305307  0.32391222
   0.53449964  0.37526610  0.32635233
   0.86797944  0.37468309  0.32574016
   0.20101597  0.70837874  0.32593823
   0.53489384  0.70864557  0.32690566
   0.86785693  0.70829569  0.32641639
   0.20110422  0.04148014  0.65933110
   0.53521499  0.04148945  0.65978572
   0.86785656  0.04280326  0.66100058
   0.20080971  0.37443782  0.65854978
   0.53429164  0.37497235  0.65954952
   0.86787841  0.37463010  0.65940648
   0.20085577  0.70860069  0.65975160
   0.53553272  0.70852415  0.65983078
   0.86826712  0.71029636  0.66244879
   0.19886938  0.04055989  0.99298568
   0.53439960  0.04153801  0.99256468
   0.88671902  0.03684886  0.99439051
   0.20100531  0.37477905  0.99287833
   0.53446851  0.37500988  0.99275555
   0.86826324  0.37451196  0.99319929
   0.20003573  0.71026336  0.99273471
   0.53427402  0.70849623  0.99269040
   0.86814636  0.70888092  0.99258277
 
 position of ions in cartesian coordinates  (Angst):
   4.62213102  3.26427645  0.00004942
  -2.34254056 -6.59226310 12.10472622
   4.66368786 -6.77706290 12.07648780
   7.01180331  9.88982722  0.00166554
   0.00001562  0.00001379 12.10622713
  21.01024722  9.87483206  0.00307481
   9.18078710 16.55437416  0.02976380
   2.32496514  6.60512568 12.10314996
  23.39365092 16.52123651  0.00000074
   0.06460380  0.08205042  3.88014695
   6.98604283  0.00920479  4.04054087
  13.99522206  0.00944881  4.02254723
   2.34167565  6.56854346  4.03104959
   9.34245711  6.60166718  4.05406266
  16.33933843  6.59402213  4.04177494
   4.69203376 13.19961111  4.01461263
  11.67515874 13.19336274  4.03947781
  18.67815569 13.18902505  4.03348508
  -4.66179166 -3.29607213  8.05216636
   2.33043336 -3.30229152  8.06675732
   9.32884360 -3.30815099  8.06574856
  -2.32904139  3.30048889  8.06445793
   4.66847441  3.29898408  8.07282849
  11.67323010  3.29742517  8.08374691
  -0.01023677  9.89881813  8.07525305
   7.02498835  9.89611571  8.09161066
  14.10682120  9.92617336  8.22606224
   1.16358647  3.09031747  2.02886389
   8.15462267  3.29704543  2.02296312
  15.17496363  3.27918383  2.00725511
   3.51500078  9.87713103  2.01587082
  10.51194196  9.89667578  2.02534591
  17.50698814  9.88442175  2.01991765
   5.96199287 16.54764211  1.85305104
  12.81069359 16.50885615  2.01274142
  19.85431088 16.49817408  2.01102992
  -3.47974198  0.00655491  6.01139668
   3.49573347  0.01146577  6.03081592
  10.49582452  0.00202719  6.05314636
  -1.16409683  6.58832203  6.05311185
   5.84560128  6.59620689  6.06595538
  12.85020774  6.61113648  6.09488926
   1.18763665 13.19175736  6.04036260
   8.18835059 13.19324082  6.05312891
  15.18770646 13.18329482  6.07536818
  -8.17343615 -3.31036138 10.08337326
  -1.16544280 -3.29597764 10.08092872
   5.83471376 -3.34096164 10.09351940
  -5.84250871  3.31164796 10.09896209
   1.16238971  3.30039771 10.08629643
   8.18037946  3.30066809 10.09522297
  -3.68217562  9.95184531 10.07739777
   3.50025414  9.89802453 10.09038107
  10.60497588  9.97330968 10.25317666
   6.93245761  0.01348228  0.00589124
  14.01432759  0.02283011  0.01059411
 -11.67671000 -3.36399278 12.10034075
  -4.67099280 -3.29878136 12.10622816
  16.33762124  6.57021575  0.00228762
  -9.29944234  3.30696914 12.09566922
  -2.35208347  3.30677333 12.10393471
  18.67893083 13.19155960  0.00000906
  23.38061438 16.51924366  3.98814214
   9.34291897 16.51116775  4.00212961
  16.34101703 16.48466624  4.03436209
  -2.31475103  3.26478594  4.00895768
   4.65263278  3.27287157  4.04041626
  11.67237788  3.30434501  4.03861352
   0.00976285  9.88058482  4.03595355
   7.01738297  9.89682960  4.04104373
  14.01777965  9.90253876  4.05789888
  18.64834809 13.18292621  8.06584466
   4.69012650 13.19219807  8.06519796
   4.67715989 -6.60983858  8.10411114
  -6.99011273  0.00236449  8.06764158
   0.01254373  0.00602229  8.04831810
   6.99261166 -0.00583671  8.07190617
  16.31054506  6.61941065  8.09726179
   2.33116697  6.59352060  8.07029211
   9.37950727  6.61683210  8.11808395
   3.31843059  0.06201944  2.03032428
  10.48731553  0.00820657  2.01295706
  17.57705622  0.07811656  1.86365718
   5.83047017  6.57958794  2.02132442
  12.84234613  6.60061793  2.02460657
  19.83526431  6.54434680  2.01618645
   8.17514951 13.20608371  2.00705227
  15.16895494 13.19133138  2.01673913
  22.19130516 13.19751653  2.01103466
  -1.14722271 -3.27849401  6.00948631
   5.81661373 -3.30258971  6.05312355
  12.82921601 -3.29619768  6.04313983
   1.17268130  3.28529640  6.03504443
   8.16791690  3.30407092  6.06311268
  15.17505270  3.30656669  6.05311562
   3.51210664  9.89077862  6.05311874
  10.53454028  9.90804189  6.09672914
  17.49623583  9.89918295  6.07119258
  -5.85722942 -6.59850012 10.08492524
   1.17181525 -6.60499983 10.09918742
   8.15200755 -6.78217636 10.07588362
  -3.49235243  0.00259166 10.08163016
   3.49694060 -0.00896353 10.08947881
  10.49885235 -0.00809888 10.09328302
  -1.20670148  6.61165083 10.09003789
   5.85133711  6.60694185 10.09522585
  12.93582350  6.65003566 10.24259169
   5.87287463  4.03762239  1.92812018
  12.88763177  4.05577008  1.92880246
  19.89046336  4.01330154  1.90505907
   8.23000823 10.65006142  1.93168913
  15.22504895 10.64497957  1.93043144
  22.22484212 10.64673659  1.93244554
  10.55658535 17.27344566  1.91242703
  17.56424475 17.24115861  1.92770804
  24.61263044 17.27816250  1.91652124
   1.20548913  0.74369205  5.92931450
   8.21851187  0.75622019  5.97137720
  15.21573784  0.75690344  5.96151190
   3.55867563  7.34390509  5.96400843
  10.55933948  7.35651998  5.97742763
  17.54768454  7.35036499  5.97713662
   5.90257912 13.94663564  5.95936539
  12.89679654 13.93578894  5.97192733
  19.89591102 13.94082832  5.96669944
  -3.45200675 -2.54622889  9.99708132
   3.55155502 -2.55240665 10.00425853
  10.53689060 -2.54931872 10.00405544
  -1.11522292  4.05745152 10.00275616
   5.89242505  4.05581415 10.00253974
  12.87814483  4.07068861  9.98829852
   1.21608709 10.63807301 10.01196488
   8.26104657 10.63486200 10.00669513
  15.03918121 10.53793410 10.28868314
   0.95287218  0.75610038  1.81748373
   8.10513785  0.89391537  2.10219060
  15.12695780  0.88640446  2.11795283
   3.44847967  7.47699285  2.09427373
  10.45376913  7.49103636  2.10915243
  17.45871486  7.48477612  2.10347923
   5.80158142 14.11743570  2.09952944
  12.79023491 14.09343540  2.10197506
  19.80078238 14.08940551  2.10375540
  -3.54350472 -2.40173247  6.12875919
   3.43864112 -2.39924964  6.13427826
  10.44498735 -2.39641213  6.13486764
  -1.21214656  4.18623404  6.12908023
   5.78415535  4.19513759  6.13953260
  12.78579621  4.19761422  6.14474096
   1.12746469 10.78643221  6.14223932
   8.13388758 10.78712521  6.14686606
  15.11193167 10.78006534  6.17690139
  -8.23864927 -5.70841638 10.17815449
  -1.21868995 -5.69847563 10.17458190
   5.80143754 -5.72099362 10.19377523
  -5.87555279  0.89632665 10.17749269
   1.11597100  0.89549057 10.17577549
   8.11467910  0.89398050 10.17852715
  -3.57354368  7.51014013 10.20116039
   3.45864142  7.49160039 10.17378320
  10.50676708  7.52410137 10.18968341
   2.34656037  4.00348587  0.08489427
   9.37884515  4.04813547  0.08625272
  16.41647619  4.03175619  0.08790463
   4.72983710 10.64497568  0.09001243
  11.72774312 10.64578314  0.08770693
  18.72773199 10.64390859  0.08846909
   7.08058125 17.59631397  0.06789794
  14.05573123 17.24435997  0.08231659
  21.08247840 17.24948384  0.08981439
  -2.27824921  0.73231466  4.08644067
   4.71901586  0.73983897  4.10395211
  11.70703691  0.75731653  4.12331986
   0.06008378  7.33808611  4.11912225
   7.05535256  7.34846739  4.12423079
  14.05353647  7.35167604  4.13369474
   2.40820653 13.95772989  4.11817976
   9.39608679 13.95319709  4.11870034
  16.39319509 13.93859839  4.12158195
  -6.94751045 -2.54657060  8.15534772
   0.04568062 -2.54293178  8.14863628
   7.04375737 -2.54812870  8.15923145
  -4.60879043  4.05621980  8.16276976
   2.38400152  4.04846902  8.15452741
   9.39147133  4.05893707  8.16078303
  -2.28781468 10.63484240  8.18485544
   4.73256830 10.64358744  8.16034622
  11.75447129 10.63355011  8.19602695
  -0.05551605 -2.37145030  3.91019270
   6.93802800 -2.39843726  3.94699855
  13.94980263 -2.39557731  3.94543842
   2.27358249  4.17597750  3.92135955
   9.28445490  4.19694915  3.95090016
  16.28922081  4.19280069  3.94348916
   4.62973807 10.78919867  3.94588694
  11.62670249 10.78623619  3.95759897
  18.62053801 10.78548162  3.95167580
  -4.72297121 -5.70125416  7.98202138
   2.28425691 -5.70423671  7.98752516
   9.25915781 -5.68894089  8.00223265
  -2.37944751  0.89288987  7.97256250
   4.61063328  0.89490175  7.98466568
  11.61276420  0.89087519  7.98293417
  -0.04808918  7.49125689  7.98711210
   6.97567996  7.49029256  7.98807080
  13.93609440  7.50077571  8.01976517
  -9.45014700 -9.02022771 12.02132410
  -2.39405171 -8.99537777 12.01622751
   4.94319516 -9.10479546 12.03833146
  -7.05618464 -2.40778736 12.02002462
  -0.05290605 -2.40067845 12.01853827
   6.94427747 -2.41358818 12.02391034
  -4.71801725  4.23002592 12.01828601
   2.28639851  4.19683891 12.01774964
   9.29913443  4.20684346 12.01644665
 


--------------------------------------------------------------------------------------------------------


 use parallel FFT for wavefunctions z direction half grid
 k-point  1 :   0.0000 0.0000 0.0000  plane waves:   29659

 maximum and minimum number of plane-waves per node :      7418     7413

 maximum number of plane-waves:     29659
 maximum index in each direction: 
   IXMAX=   21   IYMAX=   22   IZMAX=   29
   IXMIN=  -29   IYMIN=  -29   IZMIN=    0

 NGX is ok and might be reduce to 102
 NGY is ok and might be reduce to 104
 NGZ is ok and might be reduce to 118

 real space projection operators:
  total allocation   :     107616.69 KBytes
  max/ min on nodes  :      26926.64      26841.13


 parallel 3D FFT for wavefunctions:
    minimum data exchange during FFTs selected (reduces bandwidth)
 parallel 3D FFT for charge:
    minimum data exchange during FFTs selected (reduces bandwidth)


 total amount of memory used by VASP on root node   200795. kBytes
========================================================================

   base      :      30000. kBytes
   nonlr-proj:      33084. kBytes
   fftplans  :      38197. kBytes
   grid      :      72979. kBytes
   one-center:        419. kBytes
   wavefun   :      26116. kBytes
 
 Broyden mixing: mesh for mixing (old mesh)
   NGX = 59   NGY = 59   NGZ = 59
  (NGX  =240   NGY  =240   NGZ  =240)
  gives a total of 205379 points

 initial charge density was supplied:
 charge density of overlapping atoms calculated
 number of electron    1400.0000000 magnetization 
 keeping initial charge density in first step


--------------------------------------------------------------------------------------------------------


 Maximum index for non-local projection operator         1709
 Maximum index for augmentation-charges         2129 (set IRDMAX)


--------------------------------------------------------------------------------------------------------


 First call to EWALD:  gamma=   0.103
 Maximum number of real-space cells 3x 3x 4
 Maximum number of reciprocal cells 3x 3x 3

 FEWALD executed in parallel
    FEWALD:  cpu time    0.02: real time    0.11


----------------------------------------- Iteration    1(   1)  ---------------------------------------


    POTLOK:  cpu time    1.20: real time    1.47
    SETDIJ:  cpu time    2.01: real time    2.28
     EDDAV:  cpu time   39.55: real time   40.43
       DOS:  cpu time    0.00: real time    0.15
    --------------------------------------------
      LOOP:  cpu time   42.78: real time   44.41

 eigenvalue-minimisations  :  1688
 total energy-change (2. order) : 0.1064273E+05  (-0.4607305E+05)
 number of electron    1400.0000000 magnetization 
 augmentation part     1400.0000000 magnetization 

 Free energy of the ion-electron system (eV)
  ---------------------------------------------------
  alpha Z        PSCENC =      3047.98028386
  Ewald energy   TEWEN  =    -68090.19243343
  -1/2 Hartree   DENC   =    -46586.69084906
  -exchange  EXHF       =         0.00000000
  -V(xc)+E(xc)   XCENC  =     -2850.19016480
  PAW double counting   =     85006.77169912   -87150.05423964
  entropy T*S    EENTRO =        -0.00000007
  eigenvalues    EBANDS =      8816.92719517
  atomic energy  EATOM  =    118448.18248909
  ---------------------------------------------------
  free energy    TOTEN  =     10642.73398022 eV

  energy without entropy =    10642.73398029  energy(sigma->0) =    10642.73398026


--------------------------------------------------------------------------------------------------------




----------------------------------------- Iteration    1(   2)  ---------------------------------------


     EDDAV:  cpu time   41.89: real time   42.04
       DOS:  cpu time    0.00: real time    0.00
    --------------------------------------------
      LOOP:  cpu time   41.89: real time   42.05

 eigenvalue-minimisations  :  1824
 total energy-change (2. order) :-0.9793959E+04  (-0.9425116E+04)
 number of electron    1400.0000000 magnetization 
 augmentation part     1400.0000000 magnetization 

 Free energy of the ion-electron system (eV)
  ---------------------------------------------------
  alpha Z        PSCENC =      3047.98028386
  Ewald energy   TEWEN  =    -68090.19243343
  -1/2 Hartree   DENC   =    -46586.69084906
  -exchange  EXHF       =         0.00000000
  -V(xc)+E(xc)   XCENC  =     -2850.19016480
  PAW double counting   =     85006.77169912   -87150.05423964
  entropy T*S    EENTRO =        -0.00000049
  eigenvalues    EBANDS =      -977.03217544
  atomic energy  EATOM  =    118448.18248909
  ---------------------------------------------------
  free energy    TOTEN  =       848.77460919 eV

  energy without entropy =      848.77460968  energy(sigma->0) =      848.77460944


--------------------------------------------------------------------------------------------------------




----------------------------------------- Iteration    1(   3)  ---------------------------------------


     EDDAV:  cpu time   42.71: real time   42.83
       DOS:  cpu time    0.00: real time    0.00
    --------------------------------------------
      LOOP:  cpu time   42.71: real time   42.83

 eigenvalue-minimisations  :  1868
 total energy-change (2. order) :-0.1643085E+04  (-0.1569237E+04)
 number of electron    1400.0000000 magnetization 
 augmentation part     1400.0000000 magnetization 

 Free energy of the ion-electron system (eV)
  ---------------------------------------------------
  alpha Z        PSCENC =      3047.98028386
  Ewald energy   TEWEN  =    -68090.19243343
  -1/2 Hartree   DENC   =    -46586.69084906
  -exchange  EXHF       =         0.00000000
  -V(xc)+E(xc)   XCENC  =     -2850.19016480
  PAW double counting   =     85006.77169912   -87150.05423964
  entropy T*S    EENTRO =         0.00000000
  eigenvalues    EBANDS =     -2620.11683604
  atomic energy  EATOM  =    118448.18248909
  ---------------------------------------------------
  free energy    TOTEN  =      -794.31005092 eV

  energy without entropy =     -794.31005092  energy(sigma->0) =     -794.31005092


--------------------------------------------------------------------------------------------------------




----------------------------------------- Iteration    1(   4)  ---------------------------------------


     EDDAV:  cpu time   44.59: real time   44.65
       DOS:  cpu time    0.00: real time    0.00
    --------------------------------------------
      LOOP:  cpu time   44.59: real time   44.66

 eigenvalue-minimisations  :  1968
 total energy-change (2. order) :-0.1185915E+03  (-0.1161060E+03)
 number of electron    1400.0000000 magnetization 
 augmentation part     1400.0000000 magnetization 

 Free energy of the ion-electron system (eV)
  ---------------------------------------------------
  alpha Z        PSCENC =      3047.98028386
  Ewald energy   TEWEN  =    -68090.19243343
  -1/2 Hartree   DENC   =    -46586.69084906
  -exchange  EXHF       =         0.00000000
  -V(xc)+E(xc)   XCENC  =     -2850.19016480
  PAW double counting   =     85006.77169912   -87150.05423964
  entropy T*S    EENTRO =         0.00000000
  eigenvalues    EBANDS =     -2738.70835683
  atomic energy  EATOM  =    118448.18248909
  ---------------------------------------------------
  free energy    TOTEN  =      -912.90157171 eV

  energy without entropy =     -912.90157171  energy(sigma->0) =     -912.90157171


--------------------------------------------------------------------------------------------------------




----------------------------------------- Iteration    1(   5)  ---------------------------------------


     EDDAV:  cpu time   45.19: real time   45.21
       DOS:  cpu time    0.00: real time    0.00
    CHARGE:  cpu time    2.97: real time    3.22
    MIXING:  cpu time    0.03: real time    0.06
    --------------------------------------------
      LOOP:  cpu time   48.19: real time   48.50

 eigenvalue-minimisations  :  2008
 total energy-change (2. order) :-0.4491475E+01  (-0.4446870E+01)
 number of electron    1403.9999943 magnetization 
 augmentation part      316.8829391 magnetization 

 Broyden mixing:
  rms(total) = 0.30436E+01    rms(broyden)= 0.30424E+01
  rms(prec ) = 0.36406E+01
  weight for this iteration     100.00

 Free energy of the ion-electron system (eV)
  ---------------------------------------------------
  alpha Z        PSCENC =      3047.98028386
  Ewald energy   TEWEN  =    -68090.19243343
  -1/2 Hartree   DENC   =    -46586.69084906
  -exchange  EXHF       =         0.00000000
  -V(xc)+E(xc)   XCENC  =     -2850.19016480
  PAW double counting   =     85006.77169912   -87150.05423964
  entropy T*S    EENTRO =         0.00000000
  eigenvalues    EBANDS =     -2743.19983224
  atomic energy  EATOM  =    118448.18248909
  ---------------------------------------------------
  free energy    TOTEN  =      -917.39304712 eV

  energy without entropy =     -917.39304712  energy(sigma->0) =     -917.39304712


--------------------------------------------------------------------------------------------------------




----------------------------------------- Iteration    1(   6)  ---------------------------------------


    POTLOK:  cpu time    1.18: real time    1.18
    SETDIJ:  cpu time    2.02: real time    2.02
     EDDAV:  cpu time   53.19: real time   53.21
       DOS:  cpu time    0.00: real time    0.00
    CHARGE:  cpu time    3.01: real time    3.01
    MIXING:  cpu time    0.03: real time    0.13
    --------------------------------------------
      LOOP:  cpu time   59.42: real time   59.65

 eigenvalue-minimisations  :  2448
 total energy-change (2. order) : 0.4070208E+02  (-0.9331231E+01)
 number of electron    1403.9999945 magnetization 
 augmentation part      321.3597853 magnetization 

 Broyden mixing:
  rms(total) = 0.15186E+01    rms(broyden)= 0.15184E+01
  rms(prec ) = 0.17358E+01
  weight for this iteration     100.00

 eigenvalues of (default mixing * dielectric matrix)
  average eigenvalue GAMMA=   1.4134
  1.4134

 Free energy of the ion-electron system (eV)
  ---------------------------------------------------
  alpha Z        PSCENC =      3047.98028386
  Ewald energy   TEWEN  =    -68090.19243343
  -1/2 Hartree   DENC   =    -46250.00271695
  -exchange  EXHF       =         0.00000000
  -V(xc)+E(xc)   XCENC  =     -2827.49193705
  PAW double counting   =     85563.05189504   -87577.57332956
  entropy T*S    EENTRO =         0.00000000
  eigenvalues    EBANDS =     -3190.64522075
  atomic energy  EATOM  =    118448.18248909
  ---------------------------------------------------
  free energy    TOTEN  =      -876.69096976 eV

  energy without entropy =     -876.69096976  energy(sigma->0) =     -876.69096976


--------------------------------------------------------------------------------------------------------




----------------------------------------- Iteration    1(   7)  ---------------------------------------


    POTLOK:  cpu time    1.18: real time    1.18
    SETDIJ:  cpu time    2.02: real time    2.02
     EDDAV:  cpu time   45.45: real time   45.46
       DOS:  cpu time    0.00: real time    0.00
    CHARGE:  cpu time    3.06: real time    3.06
    MIXING:  cpu time    0.03: real time    0.06
    --------------------------------------------
      LOOP:  cpu time   51.74: real time   51.78

 eigenvalue-minimisations  :  2024
 total energy-change (2. order) : 0.2714094E+00  (-0.7956082E+01)
 number of electron    1403.9999947 magnetization 
 augmentation part      321.4260608 magnetization 

 Broyden mixing:
  rms(total) = 0.71710E+00    rms(broyden)= 0.71699E+00
  rms(prec ) = 0.79536E+00
  weight for this iteration     100.00

 eigenvalues of (default mixing * dielectric matrix)
  average eigenvalue GAMMA=   1.2687
  1.0460  1.4914

 Free energy of the ion-electron system (eV)
  ---------------------------------------------------
  alpha Z        PSCENC =      3047.98028386
  Ewald energy   TEWEN  =    -68090.19243343
  -1/2 Hartree   DENC   =    -46379.25620904
  -exchange  EXHF       =         0.00000000
  -V(xc)+E(xc)   XCENC  =     -2803.61311105
  PAW double counting   =     86839.72079527   -88999.20863876
  entropy T*S    EENTRO =         0.00000000
  eigenvalues    EBANDS =     -2940.03273625
  atomic energy  EATOM  =    118448.18248909
  ---------------------------------------------------
  free energy    TOTEN  =      -876.41956033 eV

  energy without entropy =     -876.41956033  energy(sigma->0) =     -876.41956033


--------------------------------------------------------------------------------------------------------




----------------------------------------- Iteration    1(   8)  ---------------------------------------


    POTLOK:  cpu time    1.17: real time    1.17
    SETDIJ:  cpu time    2.02: real time    2.02
     EDDAV:  cpu time   48.32: real time   48.33
       DOS:  cpu time    0.00: real time    0.00
    CHARGE:  cpu time    3.00: real time    3.00
    MIXING:  cpu time    0.03: real time    0.04
    --------------------------------------------
      LOOP:  cpu time   54.54: real time   54.57

 eigenvalue-minimisations  :  2184
 total energy-change (2. order) : 0.6972455E+00  (-0.4956273E+00)
 number of electron    1403.9999946 magnetization 
 augmentation part      321.0730760 magnetization 

 Broyden mixing:
  rms(total) = 0.39418E+00    rms(broyden)= 0.39417E+00
  rms(prec ) = 0.43375E+00
  weight for this iteration     100.00

 eigenvalues of (default mixing * dielectric matrix)
  average eigenvalue GAMMA=   1.4880
  2.3398  1.0620  1.0620

 Free energy of the ion-electron system (eV)
  ---------------------------------------------------
  alpha Z        PSCENC =      3047.98028386
  Ewald energy   TEWEN  =    -68090.19243343
  -1/2 Hartree   DENC   =    -46399.24603983
  -exchange  EXHF       =         0.00000000
  -V(xc)+E(xc)   XCENC  =     -2800.84316606
  PAW double counting   =     87351.64236787   -89553.00375292
  entropy T*S    EENTRO =         0.00000000
  eigenvalues    EBANDS =     -2880.24206338
  atomic energy  EATOM  =    118448.18248909
  ---------------------------------------------------
  free energy    TOTEN  =      -875.72231481 eV

  energy without entropy =     -875.72231481  energy(sigma->0) =     -875.72231481


--------------------------------------------------------------------------------------------------------




----------------------------------------- Iteration    1(   9)  ---------------------------------------


    POTLOK:  cpu time    1.18: real time    1.18
    SETDIJ:  cpu time    2.02: real time    2.02
     EDDAV:  cpu time   46.33: real time   46.34
       DOS:  cpu time    0.00: real time    0.00
    CHARGE:  cpu time    2.96: real time    2.96
    MIXING:  cpu time    0.03: real time    0.03
    --------------------------------------------
      LOOP:  cpu time   52.52: real time   52.53

 eigenvalue-minimisations  :  2072
 total energy-change (2. order) : 0.1067796E-02  (-0.1697644E+00)
 number of electron    1403.9999946 magnetization 
 augmentation part      320.7415375 magnetization 

 Broyden mixing:
  rms(total) = 0.99452E-01    rms(broyden)= 0.99435E-01
  rms(prec ) = 0.11588E+00
  weight for this iteration     100.00

 eigenvalues of (default mixing * dielectric matrix)
  average eigenvalue GAMMA=   1.4067
  2.5477  1.1531  1.1531  0.7731

 Free energy of the ion-electron system (eV)
  ---------------------------------------------------
  alpha Z        PSCENC =      3047.98028386
  Ewald energy   TEWEN  =    -68090.19243343
  -1/2 Hartree   DENC   =    -46403.34986725
  -exchange  EXHF       =         0.00000000
  -V(xc)+E(xc)   XCENC  =     -2796.01594893
  PAW double counting   =     87925.75372030   -90157.27967777
  entropy T*S    EENTRO =         0.00000000
  eigenvalues    EBANDS =     -2850.79981288
  atomic energy  EATOM  =    118448.18248909
  ---------------------------------------------------
  free energy    TOTEN  =      -875.72124702 eV

  energy without entropy =     -875.72124702  energy(sigma->0) =     -875.72124702


--------------------------------------------------------------------------------------------------------




----------------------------------------- Iteration    1(  10)  ---------------------------------------


    POTLOK:  cpu time    1.17: real time    1.17
    SETDIJ:  cpu time    2.02: real time    2.02
     EDDAV:  cpu time   48.16: real time   48.17
       DOS:  cpu time    0.00: real time    0.00
    CHARGE:  cpu time    2.97: real time    2.97
    MIXING:  cpu time    0.03: real time    0.03
    --------------------------------------------
      LOOP:  cpu time   54.36: real time   54.37

 eigenvalue-minimisations  :  2168
 total energy-change (2. order) : 0.1359035E-02  (-0.2908994E-01)
 number of electron    1403.9999946 magnetization 
 augmentation part      320.8468974 magnetization 

 Broyden mixing:
  rms(total) = 0.39291E-01    rms(broyden)= 0.39282E-01
  rms(prec ) = 0.44287E-01
  weight for this iteration     100.00

 eigenvalues of (default mixing * dielectric matrix)
  average eigenvalue GAMMA=   1.3266
  2.5491  1.2081  1.2081  0.8337  0.8337

 Free energy of the ion-electron system (eV)
  ---------------------------------------------------
  alpha Z        PSCENC =      3047.98028386
  Ewald energy   TEWEN  =    -68090.19243343
  -1/2 Hartree   DENC   =    -46392.82877582
  -exchange  EXHF       =         0.00000000
  -V(xc)+E(xc)   XCENC  =     -2795.44491020
  PAW double counting   =     87957.38105476   -90182.14862862
  entropy T*S    EENTRO =         0.00000000
  eigenvalues    EBANDS =     -2868.64896761
  atomic energy  EATOM  =    118448.18248909
  ---------------------------------------------------
  free energy    TOTEN  =      -875.71988798 eV

  energy without entropy =     -875.71988798  energy(sigma->0) =     -875.71988798


--------------------------------------------------------------------------------------------------------




----------------------------------------- Iteration    1(  11)  ---------------------------------------


    POTLOK:  cpu time    1.18: real time    1.18
    SETDIJ:  cpu time    2.02: real time    2.02
     EDDAV:  cpu time   46.36: real time   46.36
       DOS:  cpu time    0.00: real time    0.00
    CHARGE:  cpu time    3.00: real time    3.00
    MIXING:  cpu time    0.03: real time    0.03
    --------------------------------------------
      LOOP:  cpu time   52.58: real time   52.60

 eigenvalue-minimisations  :  2072
 total energy-change (2. order) :-0.8363407E-02  (-0.6396143E-02)
 number of electron    1403.9999946 magnetization 
 augmentation part      320.9007549 magnetization 

 Broyden mixing:
  rms(total) = 0.23915E-01    rms(broyden)= 0.23913E-01
  rms(prec ) = 0.27247E-01
  weight for this iteration     100.00

 eigenvalues of (default mixing * dielectric matrix)
  average eigenvalue GAMMA=   1.3657
  2.5363  1.9201  1.1053  1.1053  0.8073  0.7197

 Free energy of the ion-electron system (eV)
  ---------------------------------------------------
  alpha Z        PSCENC =      3047.98028386
  Ewald energy   TEWEN  =    -68090.19243343
  -1/2 Hartree   DENC   =    -46392.16683659
  -exchange  EXHF       =         0.00000000
  -V(xc)+E(xc)   XCENC  =     -2795.55430207
  PAW double counting   =     87946.83775200   -90168.96451483
  entropy T*S    EENTRO =         0.00000000
  eigenvalues    EBANDS =     -2871.85068940
  atomic energy  EATOM  =    118448.18248909
  ---------------------------------------------------
  free energy    TOTEN  =      -875.72825139 eV

  energy without entropy =     -875.72825139  energy(sigma->0) =     -875.72825139


--------------------------------------------------------------------------------------------------------




----------------------------------------- Iteration    1(  12)  ---------------------------------------


    POTLOK:  cpu time    1.17: real time    1.17
    SETDIJ:  cpu time    2.02: real time    2.02
     EDDAV:  cpu time   44.42: real time   44.43
       DOS:  cpu time    0.00: real time    0.00
    CHARGE:  cpu time    2.99: real time    2.99
    MIXING:  cpu time    0.03: real time    0.03
    --------------------------------------------
      LOOP:  cpu time   50.64: real time   50.65

 eigenvalue-minimisations  :  1960
 total energy-change (2. order) :-0.4940797E-02  (-0.2033836E-02)
 number of electron    1403.9999946 magnetization 
 augmentation part      320.9225032 magnetization 

 Broyden mixing:
  rms(total) = 0.11127E-01    rms(broyden)= 0.11125E-01
  rms(prec ) = 0.12942E-01
  weight for this iteration     100.00

 eigenvalues of (default mixing * dielectric matrix)
  average eigenvalue GAMMA=   1.4089
  2.4925  2.4925  1.1715  1.1715  0.9179  0.9179  0.6984

 Free energy of the ion-electron system (eV)
  ---------------------------------------------------
  alpha Z        PSCENC =      3047.98028386
  Ewald energy   TEWEN  =    -68090.19243343
  -1/2 Hartree   DENC   =    -46395.04298603
  -exchange  EXHF       =         0.00000000
  -V(xc)+E(xc)   XCENC  =     -2795.60322839
  PAW double counting   =     87943.55835469   -90164.77898399
  entropy T*S    EENTRO =         0.00000000
  eigenvalues    EBANDS =     -2869.83668798
  atomic energy  EATOM  =    118448.18248909
  ---------------------------------------------------
  free energy    TOTEN  =      -875.73319218 eV

  energy without entropy =     -875.73319218  energy(sigma->0) =     -875.73319218


--------------------------------------------------------------------------------------------------------




----------------------------------------- Iteration    1(  13)  ---------------------------------------


    POTLOK:  cpu time    1.18: real time    1.18
    SETDIJ:  cpu time    2.02: real time    2.02
     EDDAV:  cpu time   44.19: real time   44.20
       DOS:  cpu time    0.00: real time    0.00
    CHARGE:  cpu time    2.98: real time    2.98
    MIXING:  cpu time    0.03: real time    0.03
    --------------------------------------------
      LOOP:  cpu time   50.40: real time   50.41

 eigenvalue-minimisations  :  1952
 total energy-change (2. order) :-0.1162631E-02  (-0.2759671E-03)
 number of electron    1403.9999946 magnetization 
 augmentation part      320.9074818 magnetization 

 Broyden mixing:
  rms(total) = 0.55296E-02    rms(broyden)= 0.55291E-02
  rms(prec ) = 0.65783E-02
  weight for this iteration     100.00

 eigenvalues of (default mixing * dielectric matrix)
  average eigenvalue GAMMA=   1.4105
  2.8240  2.5768  1.0678  1.0678  1.1261  1.1261  0.8140  0.6809

 Free energy of the ion-electron system (eV)
  ---------------------------------------------------
  alpha Z        PSCENC =      3047.98028386
  Ewald energy   TEWEN  =    -68090.19243343
  -1/2 Hartree   DENC   =    -46398.33964346
  -exchange  EXHF       =         0.00000000
  -V(xc)+E(xc)   XCENC  =     -2795.49577463
  PAW double counting   =     87942.85734777   -90164.36438216
  entropy T*S    EENTRO =         0.00000000
  eigenvalues    EBANDS =     -2866.36224184
[...]
     15.22505     10.64498      1.93043        -0.000055     -0.000824     -0.001928
     22.22484     10.64674      1.93245         0.000596      0.000434      0.001582
     10.55659     17.27345      1.91243        -0.002995      0.000966     -0.000726
     17.56424     17.24116      1.92771         0.000993      0.000797      0.000196
     24.61263     17.27816      1.91652         0.001198      0.003302     -0.001007
      1.20549      0.74369      5.92931         0.000748      0.000922      0.002267
      8.21851      0.75622      5.97138         0.000481      0.001409      0.000371
     15.21574      0.75690      5.96151        -0.001749     -0.002923      0.001233
      3.55868      7.34391      5.96401        -0.000570      0.001515     -0.000192
     10.55934      7.35652      5.97743        -0.000658      0.001105      0.000808
     17.54768      7.35036      5.97714        -0.001185      0.004161      0.002796
      5.90258     13.94664      5.95937        -0.003068     -0.001183      0.000751
     12.89680     13.93579      5.97193         0.002410     -0.000343      0.003447
     19.89591     13.94083      5.96670        -0.000572     -0.001685      0.001283
     -3.45201     -2.54623      9.99708         0.000523     -0.000579      0.001451
      3.55156     -2.55241     10.00426         0.000596      0.002711      0.002735
     10.53689     -2.54932     10.00406         0.000422      0.001097     -0.000172
     -1.11522      4.05745     10.00276         0.001692     -0.001152      0.001112
      5.89243      4.05581     10.00254        -0.002231      0.000325      0.000802
     12.87814      4.07069      9.98830         0.000428     -0.001534      0.002349
      1.21609     10.63807     10.01196         0.000471     -0.000213     -0.000711
      8.26105     10.63486     10.00670         0.001479     -0.000947      0.002494
     15.03918     10.53793     10.28868        -0.001507      0.000636      0.002440
      0.95287      0.75610      1.81748         0.000437     -0.001761     -0.002232
      8.10514      0.89392      2.10219         0.001229      0.000173      0.000200
     15.12696      0.88640      2.11795        -0.001461      0.001266     -0.002232
      3.44848      7.47699      2.09427        -0.000124      0.000895      0.000720
     10.45377      7.49104      2.10915        -0.000345      0.000758     -0.001403
     17.45871      7.48478      2.10348        -0.000444      0.001852     -0.001187
      5.80158     14.11744      2.09953        -0.000382      0.001496     -0.002508
     12.79023     14.09344      2.10198         0.002740     -0.000347     -0.002879
     19.80078     14.08941      2.10376        -0.000232     -0.002083     -0.001006
     -3.54350     -2.40173      6.12876         0.000897     -0.000809     -0.000775
      3.43864     -2.39925      6.13428         0.000339      0.002664     -0.003274
     10.44499     -2.39641      6.13487         0.001527      0.000020     -0.000223
     -1.21215      4.18623      6.12908         0.003508     -0.002532     -0.002835
      5.78416      4.19514      6.13953        -0.001880     -0.000223     -0.001025
     12.78580      4.19761      6.14474        -0.003276     -0.000803     -0.001315
      1.12746     10.78643      6.14224         0.001157     -0.000855      0.000330
      8.13389     10.78713      6.14687        -0.002079     -0.002470     -0.000733
     15.11193     10.78007      6.17690         0.001235      0.000263     -0.002257
     -8.23865     -5.70842     10.17815        -0.001131     -0.001625     -0.002388
     -1.21869     -5.69848     10.17458         0.001522     -0.001254     -0.000491
      5.80144     -5.72099     10.19378         0.000079     -0.003088      0.000963
     -5.87555      0.89633     10.17749        -0.000297      0.000491      0.001178
      1.11597      0.89549     10.17578        -0.000750      0.000318      0.001921
      8.11468      0.89398     10.17853         0.000988      0.000564     -0.000208
     -3.57354      7.51014     10.20116        -0.000756      0.001681      0.000412
      3.45864      7.49160     10.17378         0.000662      0.000324     -0.001561
     10.50677      7.52410     10.18968         0.003539      0.000230      0.001124
      2.34656      4.00349      0.08489        -0.001799     -0.002398     -0.001996
      9.37885      4.04814      0.08625         0.000775      0.001591     -0.001468
     16.41648      4.03176      0.08790        -0.002292      0.001079     -0.000263
      4.72984     10.64498      0.09001         0.000481      0.001885      0.001052
     11.72774     10.64578      0.08771         0.001539     -0.001285      0.000625
     18.72773     10.64391      0.08847        -0.000946      0.001085      0.000787
      7.08058     17.59631      0.06790        -0.000636      0.002417     -0.001386
     14.05573     17.24436      0.08232        -0.000748      0.000523     -0.001257
     21.08248     17.24948      0.08981         0.000191      0.003000     -0.000587
     -2.27825      0.73231      4.08644         0.001952      0.000270     -0.002516
      4.71902      0.73984      4.10395        -0.000865      0.002171      0.001752
     11.70704      0.75732      4.12332        -0.001108     -0.000462     -0.000799
      0.06008      7.33809      4.11912         0.002207      0.002512     -0.000970
      7.05535      7.34847      4.12423        -0.001361      0.000958     -0.000140
     14.05354      7.35168      4.13369        -0.003216      0.001105     -0.001975
      2.40821     13.95773      4.11818         0.000102     -0.000765      0.000612
      9.39609     13.95320      4.11870        -0.002811      0.001291     -0.003935
     16.39320     13.93860      4.12158         0.000690     -0.001189      0.000614
     -6.94751     -2.54657      8.15535        -0.001060     -0.000535     -0.000058
      0.04568     -2.54293      8.14864        -0.001263      0.000618      0.001683
      7.04376     -2.54813      8.15923         0.001874      0.002930      0.001488
     -4.60879      4.05622      8.16277        -0.003309      0.001688      0.001664
      2.38400      4.04847      8.15453        -0.000758      0.000052     -0.001657
      9.39147      4.05894      8.16078        -0.000707     -0.000714     -0.000550
     -2.28781     10.63484      8.18486        -0.001720      0.001681      0.001497
      4.73257     10.64359      8.16035        -0.000268     -0.000453     -0.001496
     11.75447     10.63355      8.19603        -0.000384     -0.000698      0.001866
     -0.05552     -2.37145      3.91019        -0.000590      0.000155     -0.001821
      6.93803     -2.39844      3.94700         0.003359      0.000717     -0.001410
     13.94980     -2.39558      3.94544        -0.000977     -0.000480      0.000540
      2.27358      4.17598      3.92136         0.000973     -0.002343     -0.001363
      9.28445      4.19695      3.95090        -0.000838     -0.000860      0.000016
     16.28922      4.19280      3.94349         0.000377     -0.003677     -0.002067
      4.62974     10.78920      3.94589        -0.000555     -0.000090      0.001413
     11.62670     10.78624      3.95760         0.000031     -0.001411     -0.001921
     18.62054     10.78548      3.95168        -0.000001     -0.000909      0.001885
     -4.72297     -5.70125      7.98202         0.000284     -0.001701     -0.000006
      2.28426     -5.70424      7.98753         0.000359     -0.003143      0.004001
      9.25916     -5.68894      8.00223         0.001830     -0.001712     -0.001717
     -2.37945      0.89289      7.97256        -0.000093     -0.003314      0.001898
      4.61063      0.89490      7.98467        -0.000955      0.001136     -0.000870
     11.61276      0.89088      7.98293        -0.000901     -0.000895      0.000775
     -0.04809      7.49126      7.98711         0.003069      0.001359      0.000851
      6.97568      7.49029      7.98807        -0.000521      0.000376     -0.000431
     13.93609      7.50078      8.01977         0.001017      0.001637      0.002708
     -9.45015     -9.02023     12.02132        -0.002928     -0.000868      0.002001
     -2.39405     -8.99538     12.01623         0.002010      0.000012     -0.000968
      4.94320     -9.10480     12.03833         0.001904     -0.001644      0.001270
     -7.05618     -2.40779     12.02002         0.001789      0.000041      0.001581
     -0.05291     -2.40068     12.01854        -0.000626      0.001797     -0.000570
      6.94428     -2.41359     12.02391         0.000279     -0.000742      0.001211
     -4.71802      4.23003     12.01829         0.000440     -0.002416      0.000487
      2.28640      4.19684     12.01775         0.000744     -0.001314     -0.000910
      9.29913      4.20684     12.01645         0.002872     -0.000800      0.000600
 -----------------------------------------------------------------------------------
    total drift:                                0.000077     -0.000224      0.001129


--------------------------------------------------------------------------------------------------------



  FREE ENERGIE OF THE ION-ELECTRON SYSTEM (eV)
  ---------------------------------------------------
  free  energy   TOTEN  =      -875.73475736 eV

  energy  without entropy=     -875.73475736  energy(sigma->0) =     -875.73475736
 


--------------------------------------------------------------------------------------------------------


    POTLOK:  cpu time    3.25: real time    3.40


--------------------------------------------------------------------------------------------------------




--------------------------------------------------------------------------------------------------------


  
 reached required accuracy - stopping structural energy minimisation
     LOOP+:  cpu time  790.39: real time  793.87
    4ORBIT:  cpu time    0.00: real time    0.23
 


 total charge     
 
# of ion     s       p       d       tot
----------------------------------------
  1        0.561   0.505   9.744  10.810
  2        0.561   0.508   9.744  10.812
  3        0.570   0.491   9.743  10.804
  4        0.561   0.508   9.744  10.813
  5        0.563   0.510   9.744  10.817
  6        0.561   0.508   9.744  10.813
  7        0.570   0.491   9.743  10.804
  8        0.561   0.508   9.744  10.813
  9        0.561   0.505   9.744  10.810
 10        0.570   0.491   9.743  10.804
 11        0.562   0.511   9.744  10.818
 12        0.562   0.511   9.744  10.818
 13        0.561   0.507   9.744  10.813
 14        0.561   0.508   9.744  10.813
 15        0.561   0.507   9.744  10.812
 16        0.561   0.507   9.744  10.813
 17        0.561   0.507   9.744  10.812
 18        0.561   0.508   9.744  10.813
 19        0.561   0.508   9.744  10.813
 20        0.561   0.507   9.744  10.812
 21        0.562   0.511   9.744  10.818
 22        0.561   0.507   9.744  10.812
 23        0.561   0.508   9.744  10.813
 24        0.562   0.511   9.744  10.818
 25        0.561   0.507   9.744  10.813
 26        0.561   0.507   9.744  10.813
 27        0.570   0.491   9.743  10.804
 28        0.568   0.484   9.743  10.795
 29        0.561   0.508   9.744  10.812
 30        0.561   0.506   9.744  10.810
 31        0.561   0.508   9.744  10.813
 32        0.561   0.508   9.744  10.813
 33        0.561   0.508   9.744  10.813
 34        0.568   0.484   9.743  10.795
 35        0.561   0.507   9.744  10.812
 36        0.561   0.508   9.744  10.812
 37        0.561   0.507   9.744  10.812
 38        0.561   0.506   9.744  10.810
 39        0.563   0.514   9.744  10.821
 40        0.561   0.508   9.744  10.812
 41        0.561   0.508   9.744  10.813
 42        0.561   0.507   9.744  10.812
 43        0.561   0.508   9.744  10.813
 44        0.561   0.508   9.744  10.812
 45        0.561   0.506   9.744  10.810
 46        0.561   0.508   9.744  10.812
 47        0.561   0.508   9.744  10.813
 48        0.561   0.507   9.744  10.812
 49        0.561   0.506   9.744  10.810
 50        0.561   0.508   9.744  10.813
 51        0.561   0.508   9.744  10.812
 52        0.568   0.484   9.743  10.795
 53        0.561   0.508   9.744  10.813
 54        0.568   0.484   9.743  10.795
 55        1.340   1.705   0.223   3.269
 56        1.339   1.710   0.224   3.273
 57        1.340   1.705   0.223   3.269
 58        1.339   1.711   0.224   3.273
 59        1.341   1.707   0.223   3.272
 60        1.339   1.710   0.224   3.273
 61        1.341   1.707   0.223   3.272
 62        1.339   1.711   0.224   3.273
 63        1.340   1.705   0.223   3.269
 64        1.339   1.710   0.225   3.273
 65        1.339   1.712   0.224   3.275
 66        1.339   1.710   0.225   3.273
 67        1.339   1.710   0.224   3.273
 68        1.339   1.712   0.224   3.275
 69        1.339   1.711   0.224   3.274
 70        1.339   1.711   0.224   3.274
 71        1.341   1.707   0.223   3.272
 72        1.339   1.710   0.224   3.273
 73        1.339   1.711   0.224   3.274
 74        1.339   1.710   0.225   3.273
 75        1.339   1.712   0.224   3.275
 76        1.341   1.707   0.223   3.272
 77        1.339   1.712   0.224   3.275
 78        1.339   1.710   0.225   3.273
 79        1.339   1.711   0.224   3.274
 80        1.340   1.705   0.223   3.269
 81        1.353   1.674   0.227   3.254
 82        1.339   1.712   0.225   3.275
 83        1.353   1.674   0.227   3.254
 84        1.339   1.710   0.224   3.272
 85        1.339   1.712   0.224   3.275
 86        1.340   1.706   0.223   3.269
 87        1.338   1.710   0.223   3.272
 88        1.339   1.712   0.224   3.275
 89        1.339   1.710   0.224   3.272
 90        1.340   1.706   0.223   3.269
 91        1.338   1.711   0.224   3.274
 92        1.339   1.712   0.225   3.275
 93        1.338   1.710   0.223   3.272
 94        1.339   1.712   0.225   3.275
 95        1.338   1.711   0.224   3.274
 96        1.340   1.710   0.224   3.274
 97        1.340   1.706   0.223   3.269
 98        1.338   1.710   0.223   3.272
 99        1.339   1.710   0.224   3.272
100        1.338   1.710   0.223   3.272
101        1.353   1.674   0.227   3.254
102        1.339   1.712   0.224   3.275
103        1.339   1.712   0.224   3.275
104        1.339   1.712   0.225   3.275
105        1.340   1.706   0.223   3.269
106        1.339   1.710   0.224   3.272
107        1.353   1.674   0.227   3.254
108        1.042   1.467   0.000   2.509
109        1.042   1.468   0.000   2.511
110        1.051   1.449   0.000   2.501
111        1.041   1.471   0.000   2.511
112        1.041   1.471   0.000   2.512
113        1.041   1.470   0.000   2.511
114        1.041   1.468   0.000   2.509
115        1.041   1.470   0.000   2.511
116        1.044   1.463   0.000   2.507
117        1.048   1.458   0.000   2.506
118        1.041   1.470   0.000   2.512
119        1.042   1.467   0.000   2.510
120        1.042   1.468   0.000   2.510
121        1.040   1.471   0.000   2.511
122        1.040   1.471   0.000   2.511
123        1.041   1.469   0.000   2.511
124        1.041   1.470   0.000   2.510
125        1.040   1.472   0.000   2.512
126        1.041   1.469   0.000   2.511
127        1.042   1.467   0.000   2.509
128        1.041   1.471   0.000   2.511
129        1.040   1.471   0.000   2.511
130        1.041   1.469   0.000   2.511
131        1.040   1.475   0.000   2.514
132        1.040   1.471   0.000   2.511
133        1.046   1.460   0.000   2.506
134        1.080   1.405   0.000   2.485
135        1.080   1.405   0.000   2.485
136        1.041   1.471   0.000   2.511
137        1.040   1.475   0.000   2.514
138        1.040   1.471   0.000   2.511
139        1.041   1.469   0.000   2.511
140        1.040   1.471   0.000   2.511
141        1.046   1.460   0.000   2.506
142        1.042   1.467   0.000   2.509
143        1.041   1.469   0.000   2.511
144        1.040   1.471   0.000   2.511
145        1.041   1.470   0.000   2.510
146        1.041   1.470   0.000   2.512
147        1.040   1.471   0.000   2.511
148        1.040   1.472   0.000   2.512
149        1.042   1.467   0.000   2.510
150        1.042   1.468   0.000   2.510
151        1.041   1.469   0.000   2.511
152        1.048   1.458   0.000   2.506
153        1.042   1.467   0.000   2.509
154        1.041   1.471   0.000   2.511
155        1.041   1.468   0.000   2.509
156        1.042   1.468   0.000   2.510
157        1.041   1.471   0.000   2.512
158        1.041   1.470   0.000   2.511
159        1.051   1.449   0.000   2.501
160        1.041   1.470   0.000   2.511
161        1.044   1.463   0.000   2.507
162        1.044   1.463   0.000   2.507
163        1.041   1.469   0.000   2.511
164        1.048   1.458   0.000   2.506
165        1.040   1.472   0.000   2.512
166        1.041   1.471   0.000   2.512
167        1.041   1.469   0.000   2.511
168        1.080   1.405   0.000   2.485
169        1.040   1.471   0.000   2.511
170        1.042   1.467   0.000   2.509
171        1.041   1.468   0.000   2.509
172        1.040   1.475   0.000   2.514
173        1.041   1.470   0.000   2.512
174        1.041   1.469   0.000   2.511
175        1.041   1.470   0.000   2.511
176        1.042   1.467   0.000   2.509
177        1.040   1.471   0.000   2.511
178        1.040   1.471   0.000   2.511
179        1.042   1.468   0.000   2.511
180        1.041   1.470   0.000   2.511
181        1.040   1.471   0.000   2.511
182        1.042   1.467   0.000   2.510
183        1.041   1.470   0.000   2.510
184        1.041   1.471   0.000   2.511
185        1.041   1.471   0.000   2.511
186        1.046   1.460   0.000   2.506
187        1.042   1.468   0.000   2.510
188        1.051   1.449   0.000   2.501
189        1.051   1.449   0.000   2.501
190        1.042   1.467   0.000   2.510
191        1.041   1.471   0.000   2.511
192        1.046   1.460   0.000   2.506
193        1.041   1.470   0.000   2.511
194        1.041   1.470   0.000   2.510
195        1.042   1.468   0.000   2.510
196        1.040   1.471   0.000   2.511
197        1.041   1.471   0.000   2.511
198        1.041   1.470   0.000   2.511
199        1.040   1.471   0.000   2.511
200        1.040   1.475   0.000   2.514
201        1.042   1.467   0.000   2.509
202        1.042   1.468   0.000   2.511
203        1.041   1.470   0.000   2.512
204        1.041   1.469   0.000   2.511
205        1.040   1.471   0.000   2.511
206        1.041   1.468   0.000   2.509
207        1.044   1.463   0.000   2.507
208        1.040   1.472   0.000   2.512
209        1.080   1.405   0.000   2.485
210        1.041   1.469   0.000   2.511
211        1.041   1.471   0.000   2.512
212        1.040   1.471   0.000   2.511
213        1.048   1.458   0.000   2.506
214        1.041   1.469   0.000   2.511
215        1.042   1.467   0.000   2.509
------------------------------------------------
tot      214.079 276.034 538.0411028.153
 

 total amount of memory used by VASP on root node   200795. kBytes
========================================================================

   base      :      30000. kBytes
   nonlr-proj:      33084. kBytes
   fftplans  :      38197. kBytes
   grid      :      72979. kBytes
   one-center:        419. kBytes
   wavefun   :      26116. kBytes
 
  
  
 General timing and accounting informations for this job:
 ========================================================
  
                  Total CPU time used (sec):      817.236
                            User time (sec):      810.467
                          System time (sec):        6.769
                         Elapsed time (sec):      826.061
  
                   Maximum memory used (kb):      302504.
                   Average memory used (kb):           0.
  
                          Minor page faults:        56650
                          Major page faults:          218
                 Voluntary context switches:         3987
